0.601563 	0.20001 	-6.1765e-17 	0.744299 	1.33648
0.604688 	0.20001 	-6.03773e-17 	0.122831 	0.733453
0.607813 	0.20001 	-5.76017e-17 	0.0174605 	0.415601
0.610938 	0.20001 	-5.62139e-17 	0.000592302 	0.0937041
0.614063 	0.20001 	-5.62139e-17 	0.00101907 	0.203094
0.617188 	0.20001 	-5.62139e-17 	0.00534019 	0.526324
0.620313 	0.20001 	-5.79486e-17 	0.016951 	0.693007
0.623438 	0.20001 	-6.10711e-17 	0.0205493 	0.713803
0.626563 	0.20001 	-6.24589e-17 	0.0182731 	0.711862
0.629688 	0.20001 	-6.24589e-17 	0.0176276 	0.74808
0.632813 	0.20001 	-6.38467e-17 	0.0227018 	0.819961
0.635938 	0.20001 	-6.52345e-17 	0.0302619 	0.810205
0.639063 	0.20001 	-6.66223e-17 	0.0373779 	0.793122
0.642188 	0.20001 	-6.93978e-17 	0.040542 	0.757472
0.645313 	0.20001 	-7.21734e-17 	0.0407276 	0.738072
0.648438 	0.20001 	-7.21734e-17 	0.0427577 	0.750287
0.651563 	0.20001 	-7.07856e-17 	0.048477 	0.802452
0.654688 	0.20001 	-7.07856e-17 	0.0561017 	0.874912
0.657813 	0.20001 	-7.07856e-17 	0.0634423 	0.933815
0.660938 	0.20001 	-7.21734e-17 	0.0730752 	0.981903
0.664063 	0.20001 	-7.49489e-17 	0.0934493 	1.03576
0.667188 	0.20001 	-7.98062e-17 	0.12129 	1.0621
0.670313 	0.20001 	-8.32756e-17 	0.130229 	1.05672
0.673438 	0.20001 	-8.32756e-17 	0.125486 	1.03143
0.676563 	0.20001 	-8.32756e-17 	0.117066 	1.01547
0.679688 	0.20001 	-8.18878e-17 	0.116424 	1.02283
0.682813 	0.20001 	-8.05001e-17 	0.12255 	1.05754
0.685938 	0.20001 	-8.05001e-17 	0.134848 	1.09663
0.689063 	0.20001 	-8.39695e-17 	0.15721 	1.12384
0.692188 	0.20001 	-8.74389e-17 	0.192322 	1.15199
0.695313 	0.20001 	-8.88267e-17 	0.232469 	1.18506
0.698438 	0.20001 	-9.02145e-17 	0.270342 	1.22296
0.701563 	0.20001 	-9.02145e-17 	0.291309 	1.24816
0.704688 	0.20001 	-9.19492e-17 	0.296976 	1.25581
0.707813 	0.20001 	-9.36839e-17 	0.297748 	1.25667
0.710938 	0.20001 	-9.36839e-17 	0.294525 	1.2508
0.714063 	0.20001 	-9.36839e-17 	0.296789 	1.25074
0.717188 	0.20001 	-9.50717e-17 	0.307665 	1.25236
0.720313 	0.20001 	-9.9929e-17 	0.32598 	1.25377
0.723438 	0.20001 	-1.03398e-16 	0.353327 	1.26388
0.726563 	0.20001 	-1.04786e-16 	0.391166 	1.2924
0.729688 	0.20001 	-1.07909e-16 	0.426655 	1.32589
0.732813 	0.20001 	-1.09643e-16 	0.442402 	1.33468
0.735938 	0.20001 	-1.11031e-16 	0.445029 	1.33176
0.739063 	0.20001 	-1.13807e-16 	0.440024 	1.31729
0.742188 	0.20001 	-1.16582e-16 	0.438043 	1.3041
0.745313 	0.20001 	-1.19358e-16 	0.446853 	1.30407
0.748438 	0.20001 	-1.24215e-16 	0.465275 	1.31113
0.751563 	0.20001 	-1.29072e-16 	0.497742 	1.33553
0.754688 	0.20001 	-1.3046e-16 	0.530653 	1.36434
0.757813 	0.20001 	-1.3046e-16 	0.547863 	1.37951
0.760938 	0.20001 	-1.29072e-16 	0.566932 	1.39672
0.764063 	0.20001 	-1.29072e-16 	0.582194 	1.40407
0.767188 	0.20001 	-1.31848e-16 	0.588659 	1.40152
0.770313 	0.20001 	-1.34623e-16 	0.591836 	1.3954
0.773438 	0.20001 	-1.39481e-16 	0.597994 	1.3936
0.776563 	0.20001 	-1.4295e-16 	0.617022 	1.40269
0.779688 	0.20001 	-1.41562e-16 	0.657909 	1.43364
0.782813 	0.20001 	-1.40175e-16 	0.681956 	1.44885
0.785938 	0.20001 	-1.40175e-16 	0.688317 	1.44868
0.789063 	0.20001 	-1.40175e-16 	0.691301 	1.4444
0.792188 	0.20001 	-1.41909e-16 	0.69248 	1.4349
0.795313 	0.20001 	-1.43644e-16 	0.695403 	1.42874
0.798438 	0.20001 	-1.43644e-16 	0.704385 	1.42916
0.801563 	0.20001 	-1.43644e-16 	0.723535 	1.43845
0.804688 	0.20001 	-1.43644e-16 	0.748394 	1.45266
0.807813 	0.20001 	-1.48501e-16 	0.763466 	1.45469
0.810938 	0.20001 	-1.53358e-16 	0.77308 	1.45334
0.814063 	0.20001 	-1.53358e-16 	0.781348 	1.45285
0.817188 	0.20001 	-1.53358e-16 	0.786305 	1.4532
0.820313 	0.20001 	-1.53358e-16 	0.791735 	1.4563
0.823438 	0.20001 	-1.54746e-16 	0.798086 	1.46388
0.826563 	0.20001 	-1.56134e-16 	0.805486 	1.4722
0.829688 	0.20001 	-1.56134e-16 	0.813542 	1.47656
0.832813 	0.20001 	-1.56134e-16 	0.829931 	1.48123
0.835938 	0.20001 	-1.56134e-16 	0.857902 	1.49042
0.839063 	0.20001 	-1.56134e-16 	0.878151 	1.49899
0.842188 	0.20001 	-1.56134e-16 	0.887589 	1.50652
0.845313 	0.20001 	-1.57522e-16 	0.89629 	1.51699
0.848438 	0.20001 	-1.60644e-16 	0.901652 	1.52072
0.851563 	0.20001 	-1.62379e-16 	0.903832 	1.51922
0.854688 	0.20001 	-1.62379e-16 	0.904685 	1.51375
0.857813 	0.20001 	-1.62379e-16 	0.907875 	1.50688
0.860938 	0.20001 	-1.62379e-16 	0.919752 	1.50527
0.864063 	0.20001 	-1.62379e-16 	0.9412 	1.5083
0.867188 	0.20001 	-1.62379e-16 	0.958644 	1.51448
0.870313 	0.20001 	-1.63767e-16 	0.9621 	1.51535
0.873438 	0.20001 	-1.63767e-16 	0.963869 	1.51546
0.876563 	0.20001 	-1.62379e-16 	0.964702 	1.51571
0.879688 	0.20001 	-1.62379e-16 	0.970969 	1.51922
0.882813 	0.20001 	-1.63767e-16 	0.980952 	1.52614
0.885938 	0.20001 	-1.65155e-16 	0.99024 	1.53372
0.889063 	0.20001 	-1.65155e-16 	0.99881 	1.53997
0.892188 	0.20001 	-1.65155e-16 	1.01117 	1.54479
0.895313 	0.20001 	-1.63767e-16 	1.02948 	1.54881
0.898438 	0.20001 	-1.62379e-16 	1.03726 	1.5498
0.901563 	0.20001 	-1.62379e-16 	1.03867 	1.55003
0.904688 	0.20001 	-1.62379e-16 	1.0409 	1.55177
0.907813 	0.20001 	-1.60991e-16 	1.03809 	1.55268
0.910938 	0.20001 	-1.59603e-16 	1.03002 	1.55186
0.914063 	0.20001 	-1.59603e-16 	1.02976 	1.55131
0.917188 	0.20001 	-1.58216e-16 	1.03264 	1.55068
0.920313 	0.20001 	-1.5544e-16 	1.03969 	1.55005
0.923438 	0.20001 	-1.57522e-16 	1.05392 	1.55058
0.926563 	0.20001 	-1.64461e-16 	1.07731 	1.55521
0.929688 	0.20001 	-1.6793e-16 	1.09845 	1.56326
0.932813 	0.20001 	-1.6793e-16 	1.10409 	1.5661
0.935938 	0.20001 	-1.6793e-16 	1.1048 	1.56623
0.939063 	0.20001 	-1.6793e-16 	1.10392 	1.56559
0.942188 	0.20001 	-1.69318e-16 	1.09978 	1.56235
0.945313 	0.20001 	-1.69318e-16 	1.09706 	1.55775
0.948438 	0.20001 	-1.6793e-16 	1.0974 	1.55474
0.951563 	0.20001 	-1.6793e-16 	1.10035 	1.55419
0.954688 	0.20001 	-1.66542e-16 	1.10712 	1.55562
0.957813 	0.20001 	-1.63767e-16 	1.1224 	1.56227
0.960938 	0.20001 	-1.63767e-16 	1.14006 	1.57026
0.964063 	0.20001 	-1.63767e-16 	1.14849 	1.57253
0.967188 	0.20001 	-1.60991e-16 	1.1521 	1.57252
0.970313 	0.20001 	-1.60991e-16 	1.15363 	1.57162
0.973438 	0.20001 	-1.64114e-16 	1.15442 	1.57023
0.976563 	0.20001 	-1.65848e-16 	1.15529 	1.56962
0.979688 	0.20001 	-1.65848e-16 	1.15619 	1.56973
0.982813 	0.20001 	-1.69318e-16 	1.15833 	1.5714
0.985938 	0.20001 	-1.74175e-16 	1.16331 	1.57535
0.989063 	0.20001 	-1.75563e-16 	1.1724 	1.57986
0.992188 	0.20001 	-1.75563e-16 	1.17821 	1.58125
0.995313 	0.20001 	-1.75563e-16 	1.17944 	1.58107
0.998438 	0.20001 	-1.75563e-16 	1.18034 	1.58074
1.00156 	0.20001 	-1.75563e-16 	1.18164 	1.58067
1.00469 	0.20001 	-1.75563e-16 	1.18317 	1.58073
1.00781 	0.20001 	-1.75563e-16 	1.18493 	1.58125
1.01094 	0.20001 	-1.75563e-16 	1.18724 	1.58253
1.01406 	0.20001 	-1.77298e-16 	1.19163 	1.58466
1.01719 	0.20001 	-1.79032e-16 	1.20163 	1.58806
1.02031 	0.20001 	-1.79032e-16 	1.21329 	1.59106
1.02344 	0.20001 	-1.8042e-16 	1.21666 	1.59151
1.02656 	0.20001 	-1.81808e-16 	1.21747 	1.59162
1.02969 	0.20001 	-1.81808e-16 	1.2186 	1.59241
1.03281 	0.20001 	-1.83196e-16 	1.21947 	1.59422
1.03594 	0.20001 	-1.84583e-16 	1.21699 	1.59613
1.03906 	0.20001 	-1.88053e-16 	1.21662 	1.59858
1.04219 	0.20001 	-1.94992e-16 	1.21944 	1.60031
1.04531 	0.20001 	-1.98461e-16 	1.2226 	1.6
1.04844 	0.20001 	-1.98461e-16 	1.22609 	1.59824
1.05156 	0.20001 	-1.98461e-16 	1.22961 	1.59503
1.05469 	0.20001 	-1.97073e-16 	1.23506 	1.59331
1.05781 	0.20001 	-1.95686e-16 	1.24278 	1.59356
1.06094 	0.20001 	-1.95686e-16 	1.24868 	1.59442
1.06406 	0.20001 	-1.95686e-16 	1.25073 	1.59447
1.06719 	0.20001 	-1.95686e-16 	1.25152 	1.59412
1.07031 	0.20001 	-1.97073e-16 	1.25195 	1.59343
1.07344 	0.20001 	-2.00196e-16 	1.25211 	1.59227
1.07656 	0.20001 	-2.01931e-16 	1.25201 	1.59029
1.07969 	0.20001 	-2.01931e-16 	1.25256 	1.58763
1.08281 	0.20001 	-2.01931e-16 	1.25472 	1.58524
1.08594 	0.20001 	-2.01931e-16 	1.25983 	1.58449
1.08906 	0.20001 	-2.00543e-16 	1.26743 	1.58512
1.09219 	0.20001 	-1.99155e-16 	1.27216 	1.5863
1.09531 	0.20001 	-1.99155e-16 	1.27345 	1.58696
1.09844 	0.20001 	-1.99155e-16 	1.27476 	1.58821
1.10156 	0.20001 	-1.99155e-16 	1.27616 	1.59063
1.10469 	0.20001 	-1.99155e-16 	1.27544 	1.59402
1.10781 	0.20001 	-1.99155e-16 	1.27264 	1.59831
1.11094 	0.20001 	-1.99155e-16 	1.27464 	1.6042
1.11406 	0.20001 	-1.97767e-16 	1.27837 	1.60955
1.11719 	0.20001 	-2.01237e-16 	1.28143 	1.61231
1.12031 	0.20001 	-2.06094e-16 	1.28374 	1.6127
1.12344 	0.20001 	-2.07829e-16 	1.28407 	1.61233
1.12656 	0.20001 	-2.09563e-16 	1.28493 	1.61177
1.12969 	0.20001 	-2.09563e-16 	1.28657 	1.61072
1.13281 	0.20001 	-2.09563e-16 	1.28795 	1.60849
1.13594 	0.20001 	-2.09563e-16 	1.28879 	1.60474
1.13906 	0.20001 	-2.09563e-16 	1.28964 	1.59973
1.14219 	0.20001 	-2.09563e-16 	1.29009 	1.59403
1.14531 	0.20001 	-2.08176e-16 	1.2904 	1.58991
1.14844 	0.20001 	-2.06788e-16 	1.29298 	1.5892
1.15156 	0.20001 	-2.06788e-16 	1.29694 	1.58965
1.15469 	0.20001 	-2.06788e-16 	1.29933 	1.59052
1.15781 	0.20001 	-2.06788e-16 	1.3004 	1.59142
1.16094 	0.20001 	-2.06788e-16 	1.30171 	1.59294
1.16406 	0.20001 	-2.054e-16 	1.30323 	1.59539
1.16719 	0.20001 	-2.02625e-16 	1.30399 	1.59888
1.17031 	0.20001 	-2.04706e-16 	1.30455 	1.60348
1.17344 	0.20001 	-2.08176e-16 	1.308 	1.60884
1.17656 	0.20001 	-2.11645e-16 	1.31112 	1.61252
1.17969 	0.20001 	-2.15115e-16 	1.31352 	1.61391
1.18281 	0.20001 	-2.15115e-16 	1.31478 	1.61406
1.18594 	0.20001 	-2.15115e-16 	1.31533 	1.61392
1.18906 	0.20001 	-2.15115e-16 	1.31551 	1.61316
1.19219 	0.20001 	-2.15115e-16 	1.31542 	1.61141
1.19531 	0.20001 	-2.15115e-16 	1.31513 	1.60853
1.19844 	0.20001 	-2.15115e-16 	1.31447 	1.60448
1.20156 	0.20001 	-2.15115e-16 	1.31426 	1.60048
1.20469 	0.20001 	-2.15115e-16 	1.31699 	1.5992
1.20781 	0.20001 	-2.13727e-16 	1.32162 	1.59949
1.21094 	0.20001 	-2.12686e-16 	1.32413 	1.6002
1.21406 	0.20001 	-2.11298e-16 	1.325 	1.60095
1.21719 	0.20001 	-2.10951e-16 	1.32602 	1.60228
1.22031 	0.20001 	-2.10951e-16 	1.32623 	1.60423
1.22344 	0.20001 	-2.09563e-16 	1.32428 	1.60626
1.22656 	0.20001 	-2.12686e-16 	1.32238 	1.60795
1.22969 	0.20001 	-2.17196e-16 	1.32287 	1.60912
1.23281 	0.20001 	-2.22053e-16 	1.32312 	1.60917
1.23594 	0.20001 	-2.25523e-16 	1.32403 	1.60896
1.23906 	0.20001 	-2.25523e-16 	1.32623 	1.60884
1.24219 	0.20001 	-2.26911e-16 	1.32867 	1.60905
1.24531 	0.20001 	-2.28298e-16 	1.32932 	1.60923
1.24844 	0.20001 	-2.30033e-16 	1.32947 	1.60943
1.25156 	0.20001 	-2.31768e-16 	1.32933 	1.60985
1.25469 	0.20001 	-2.30033e-16 	1.3279 	1.6101
1.25781 	0.20001 	-2.28298e-16 	1.32599 	1.61
1.26094 	0.20001 	-2.29686e-16 	1.32635 	1.61021
1.26406 	0.20001 	-2.32462e-16 	1.32733 	1.61019
1.26719 	0.20001 	-2.31768e-16 	1.32848 	1.60973
1.27031 	0.20001 	-2.26564e-16 	1.33 	1.60884
1.27344 	0.20001 	-2.22053e-16 	1.33215 	1.6077
1.27656 	0.20001 	-2.15808e-16 	1.33458 	1.60631
1.27969 	0.20001 	-2.09563e-16 	1.33692 	1.60488
1.28281 	0.20001 	-2.08176e-16 	1.3386 	1.60374
1.28594 	0.20001 	-2.09563e-16 	1.33854 	1.6027
1.28906 	0.20001 	-2.09563e-16 	1.33821 	1.60199
1.29219 	0.20001 	-2.08176e-16 	1.33826 	1.60176
1.29531 	0.20001 	-2.08176e-16 	1.33852 	1.6017
1.29844 	0.20001 	-2.09563e-16 	1.33869 	1.60167
1.30156 	0.20001 	-2.10951e-16 	1.33872 	1.6018
1.30469 	0.20001 	-2.14421e-16 	1.33859 	1.60216
1.30781 	0.20001 	-2.14421e-16 	1.33818 	1.60337
1.31094 	0.20001 	-2.10951e-16 	1.34533 	1.60756
1.31406 	0.20001 	-2.07482e-16 	1.42093 	1.63728
1.31719 	0.20001 	-2.02625e-16 	1.75547 	1.75194
1.32031 	0.20001 	-2.02625e-16 	2.69133 	1.98733
1.32344 	0.20001 	-2.02278e-16 	4.75052 	2.35816
1.32656 	0.20001 	-2.00543e-16 	6.6784 	2.61114
1.32969 	0.20001 	-2.01931e-16 	6.63952 	2.60562
1.33281 	0.20001 	-2.04706e-16 	6.49389 	2.58029
1.33594 	0.20001 	-2.06094e-16 	6.40115 	2.55391
1.33906 	0.20001 	-2.06094e-16 	6.40842 	2.54884
1.34219 	0.20001 	-2.04706e-16 	6.45062 	2.54804
1.34531 	0.20001 	-2.03318e-16 	6.50005 	2.54901
1.34844 	0.20001 	-1.98461e-16 	6.52531 	2.55073
1.35156 	0.20001 	-1.90482e-16 	6.53719 	2.55353
1.35469 	0.20001 	-1.87359e-16 	6.53253 	2.55699
1.35781 	0.20001 	-1.82502e-16 	6.52009 	2.56338
1.36094 	0.20001 	-1.74175e-16 	6.53492 	2.5738
1.36406 	0.20001 	-1.70706e-16 	6.55217 	2.5803
1.36719 	0.20001 	-1.70706e-16 	6.55566 	2.58062
1.37031 	0.20001 	-1.72093e-16 	6.54808 	2.5775
1.37344 	0.20001 	-1.70359e-16 	6.53775 	2.57019
1.37656 	0.20001 	-1.67236e-16 	6.52677 	2.56046
1.37969 	0.20001 	-1.67236e-16 	6.52836 	2.55418
1.38281 	0.20001 	-1.67236e-16 	6.52684 	2.55151
1.38594 	0.20001 	-1.67236e-16 	6.51998 	2.55138
1.38906 	0.20001 	-1.67236e-16 	6.50996 	2.55241
1.39219 	0.20001 	-1.67236e-16 	6.49798 	2.55446
1.39531 	0.20001 	-1.67236e-16 	6.49774 	2.55814
1.39844 	0.20001 	-1.67236e-16 	6.50369 	2.56147
1.40156 	0.20001 	-1.67236e-16 	6.51516 	2.56416
1.40469 	0.20001 	-1.67236e-16 	6.5149 	2.56456
1.40781 	0.20001 	-1.67236e-16 	6.506 	2.5638
1.41094 	0.20001 	-1.67236e-16 	6.48662 	2.56091
1.41406 	0.20001 	-1.67236e-16 	6.46109 	2.5562
1.41719 	0.20001 	-1.67236e-16 	6.44305 	2.55157
1.42031 	0.20001 	-1.67236e-16 	6.42774 	2.54686
1.42344 	0.20001 	-1.65848e-16 	6.41564 	2.54286
1.42656 	0.20001 	-1.64461e-16 	6.40166 	2.54002
1.42969 	0.20001 	-1.64461e-16 	6.3905 	2.53916
1.43281 	0.20001 	-1.64461e-16 	6.38333 	2.53927
1.43594 	0.20001 	-1.64461e-16 	6.382 	2.54059
1.43906 	0.20001 	-1.63073e-16 	6.38612 	2.54291
1.44219 	0.20001 	-1.61685e-16 	6.38253 	2.54361
1.44531 	0.20001 	-1.61685e-16 	6.36913 	2.54297
1.44844 	0.20001 	-1.61685e-16 	6.35064 	2.54058
1.45156 	0.20001 	-1.56828e-16 	6.3264 	2.53607
1.45469 	0.20001 	-1.51971e-16 	6.30092 	2.53068
1.45781 	0.20001 	-1.51971e-16 	6.2823 	2.52651
1.46094 	0.20001 	-1.51971e-16 	6.27147 	2.52433
1.46406 	0.20001 	-1.50583e-16 	6.27271 	2.5243
1.46719 	0.20001 	-1.49195e-16 	6.28621 	2.52636
1.47031 	0.20001 	-1.49195e-16 	6.30252 	2.5298
1.47344 	0.20001 	-1.49195e-16 	6.3076 	2.53214
1.47656 	0.20001 	-1.49195e-16 	6.3007 	2.53317
1.47969 	0.20001 	-1.49195e-16 	6.28603 	2.53324
1.48281 	0.20001 	-1.49195e-16 	6.25352 	2.5307
1.48594 	0.20001 	-1.49195e-16 	6.20789 	2.52562
1.48906 	0.20001 	-1.4746e-16 	6.17796 	2.52152
1.49219 	0.20001 	-1.45726e-16 	6.16408 	2.51858
1.49531 	0.20001 	-1.45726e-16 	6.15632 	2.51597
1.49844 	0.20001 	-1.45726e-16 	6.16101 	2.51488
1.50156 	0.20001 	-1.45726e-16 	6.17622 	2.51509
1.50469 	0.20001 	-1.45726e-16 	6.18494 	2.51528
1.50781 	0.20001 	-1.47113e-16 	6.1742 	2.51367
1.51094 	0.20001 	-1.48501e-16 	6.153 	2.5117
1.51406 	0.20001 	-1.48501e-16 	6.11477 	2.50843
1.51719 	0.20001 	-1.48501e-16 	6.08504 	2.50658
1.52031 	0.20001 	-1.47113e-16 	6.07355 	2.50669
1.52344 	0.20001 	-1.45726e-16 	6.06836 	2.50739
1.52656 	0.20001 	-1.45726e-16 	6.07333 	2.50914
1.52969 	0.20001 	-1.45726e-16 	6.08404 	2.51099
1.53281 	0.20001 	-1.45726e-16 	6.08835 	2.51134
1.53594 	0.20001 	-1.42256e-16 	6.07939 	2.50951
1.53906 	0.20001 	-1.37399e-16 	6.05782 	2.50535
1.54219 	0.20001 	-1.36011e-16 	6.024 	2.4996
1.54531 	0.20001 	-1.36011e-16 	5.9968 	2.49512
1.54844 	0.20001 	-1.36011e-16 	5.98479 	2.4932
1.55156 	0.20001 	-1.36011e-16 	5.98163 	2.49292
1.55469 	0.20001 	-1.34623e-16 	5.98803 	2.49432
1.55781 	0.20001 	-1.29766e-16 	5.99095 	2.49588
1.56094 	0.20001 	-1.26297e-16 	5.98351 	2.4964
1.56406 	0.20001 	-1.24562e-16 	5.96911 	2.49615
1.56719 	0.20001 	-1.19358e-16 	5.94602 	2.49433
1.57031 	0.20001 	-1.15888e-16 	5.92798 	2.49243
1.57344 	0.20001 	-1.14501e-16 	5.91697 	2.4907
1.57656 	0.20001 	-1.13113e-16 	5.90916 	2.48851
1.57969 	0.20001 	-1.13113e-16 	5.90842 	2.48679
1.58281 	0.20001 	-1.13113e-16 	5.91081 	2.48537
1.58594 	0.20001 	-1.13113e-16 	5.90288 	2.48338
1.58906 	0.20001 	-1.13113e-16 	5.88981 	2.48217
1.59219 	0.20001 	-1.14501e-16 	5.87064 	2.48116
1.59531 	0.20001 	-1.15888e-16 	5.84668 	2.48008
1.59844 	0.20001 	-1.17276e-16 	5.82394 	2.47936
1.60156 	0.20001 	-1.15541e-16 	5.80402 	2.47892
1.60469 	0.20001 	-1.12419e-16 	5.7885 	2.47879
1.60781 	0.20001 	-1.11031e-16 	5.77831 	2.47874
1.61094 	0.20001 	-1.06174e-16 	5.77048 	2.47852
1.61406 	0.20001 	-1.02705e-16 	5.76356 	2.47787
1.61719 	0.20001 	-1.02705e-16 	5.7584 	2.47682
1.62031 	0.20001 	-1.02705e-16 	5.75626 	2.47572
1.62344 	0.20001 	-1.07562e-16 	5.75839 	2.47489
1.62656 	0.20001 	-1.12419e-16 	5.76337 	2.47447
1.62969 	0.20001 	-1.11031e-16 	5.7642 	2.47396
1.63281 	0.20001 	-1.11031e-16 	5.75606 	2.47278
1.63594 	0.20001 	-1.12419e-16 	5.74338 	2.47168
1.63906 	0.20001 	-1.12419e-16 	5.71891 	2.46937
1.64219 	0.20001 	-1.12419e-16 	5.68733 	2.46614
1.64531 	0.20001 	-1.11031e-16 	5.66567 	2.46396
1.64844 	0.20001 	-1.09643e-16 	5.65369 	2.46266
1.65156 	0.20001 	-1.06174e-16 	5.64414 	2.46124
1.65469 	0.20001 	-1.02705e-16 	5.63747 	2.45976
1.65781 	0.20001 	-1.02705e-16 	5.63623 	2.45874
1.66094 	0.20001 	-1.01317e-16 	5.63799 	2.45784
1.66406 	0.20001 	-9.9929e-17 	5.63179 	2.45581
1.66719 	0.20001 	-9.9929e-17 	5.61774 	2.45315
1.67031 	0.20001 	-9.85412e-17 	5.60174 	2.45084
1.67344 	0.20001 	-9.85412e-17 	5.5837 	2.44874
1.67656 	0.20001 	-9.9929e-17 	5.56631 	2.4471
1.67969 	0.20001 	-1.03398e-16 	5.55224 	2.44608
1.68281 	0.20001 	-1.0548e-16 	5.54134 	2.44548
1.68594 	0.20001 	-1.04092e-16 	5.53285 	2.44512
1.68906 	0.20001 	-1.04092e-16 	5.52818 	2.44502
1.69219 	0.20001 	-1.04092e-16 	5.52771 	2.44518
1.69531 	0.20001 	-1.04092e-16 	5.5318 	2.44591
1.69844 	0.20001 	-1.04092e-16 	5.5393 	2.44677
1.70156 	0.20001 	-1.04092e-16 	5.54632 	2.44748
1.70469 	0.20001 	-1.02705e-16 	5.54859 	2.44779
1.70781 	0.20001 	-1.01317e-16 	5.54412 	2.44751
1.71094 	0.20001 	-1.01317e-16 	5.53511 	2.44708
1.71406 	0.20001 	-1.01317e-16 	5.51738 	2.44581
1.71719 	0.20001 	-1.02705e-16 	5.48915 	2.44336
1.72031 	0.20001 	-1.02705e-16 	5.46121 	2.44106
1.72344 	0.20001 	-1.01317e-16 	5.43754 	2.43907
1.72656 	0.20001 	-9.9929e-17 	5.41881 	2.43734
1.72969 	0.20001 	-9.9929e-17 	5.40622 	2.43602
1.73281 	0.20001 	-1.01317e-16 	5.3974 	2.4349
1.73594 	0.20001 	-1.01317e-16 	5.39015 	2.43368
1.73906 	0.20001 	-1.01317e-16 	5.38678 	2.43279
1.74219 	0.20001 	-1.03051e-16 	5.38823 	2.43268
1.74531 	0.20001 	-1.03398e-16 	5.39208 	2.43294
1.74844 	0.20001 	-1.00623e-16 	5.39245 	2.43313
1.75156 	0.20001 	-9.92351e-17 	5.38611 	2.43292
1.75469 	0.20001 	-1.00623e-16 	5.37569 	2.43262
1.75781 	0.20001 	-1.0548e-16 	5.35932 	2.43169
1.76094 	0.20001 	-1.0895e-16 	5.33338 	2.42942
1.76406 	0.20001 	-1.0548e-16 	5.30695 	2.4269
1.76719 	0.20001 	-1.02011e-16 	5.28416 	2.4244
1.77031 	0.20001 	-1.00623e-16 	5.26493 	2.42177
1.77344 	0.20001 	-9.92351e-17 	5.24965 	2.41912
1.77656 	0.20001 	-9.78473e-17 	5.237 	2.41637
1.77969 	0.20001 	-9.3337e-17 	5.22557 	2.41361
1.78281 	0.20001 	-8.67451e-17 	5.21645 	2.41125
1.78594 	0.20001 	-8.46634e-17 	5.20697 	2.40921
1.78906 	0.20001 	-8.60512e-17 	5.19523 	2.40752
1.79219 	0.20001 	-8.74389e-17 	5.18018 	2.40605
1.79531 	0.20001 	-8.88267e-17 	5.158 	2.40418
1.79844 	0.20001 	-8.88267e-17 	5.13695 	2.40286
1.80156 	0.20001 	-8.88267e-17 	5.12244 	2.40249
1.80469 	0.20001 	-8.74389e-17 	5.11308 	2.40265
1.80781 	0.20001 	-8.60512e-17 	5.10642 	2.40296
1.81094 	0.20001 	-8.60512e-17 	5.10256 	2.40317
1.81406 	0.20001 	-8.60512e-17 	5.1025 	2.40349
1.81719 	0.20001 	-8.46634e-17 	5.10538 	2.4038
1.82031 	0.20001 	-7.84184e-17 	5.10936 	2.40377
1.82344 	0.20001 	-7.49489e-17 	5.1112 	2.40309
1.82656 	0.20001 	-7.77245e-17 	5.10422 	2.40071
1.82969 	0.20001 	-8.05001e-17 	5.09023 	2.39741
1.83281 	0.20001 	-8.18878e-17 	5.06647 	2.39306
1.83594 	0.20001 	-8.32756e-17 	5.02861 	2.38726
1.83906 	0.20001 	-8.46634e-17 	4.99565 	2.38246
1.84219 	0.20001 	-8.29287e-17 	4.97761 	2.37982
1.84531 	0.20001 	-8.11939e-17 	4.96825 	2.37858
1.84844 	0.20001 	-8.25817e-17 	4.96292 	2.37804
1.85156 	0.20001 	-8.25817e-17 	4.96401 	2.37841
1.85469 	0.20001 	-8.25817e-17 	4.96887 	2.37949
1.85781 	0.20001 	-8.39695e-17 	4.97023 	2.38001
1.86094 	0.20001 	-8.25817e-17 	4.96457 	2.37972
1.86406 	0.20001 	-7.98062e-17 	4.95406 	2.37904
1.86719 	0.20001 	-7.49489e-17 	4.93771 	2.3778
1.87031 	0.20001 	-7.14795e-17 	4.90959 	2.37524
1.87344 	0.20001 	-7.14795e-17 	4.88477 	2.37352
1.87656 	0.20001 	-7.00917e-17 	4.87208 	2.37347
1.87969 	0.20001 	-6.87039e-17 	4.86555 	2.37435
1.88281 	0.20001 	-7.00917e-17 	4.86234 	2.37581
1.88594 	0.20001 	-7.14795e-17 	4.86422 	2.37785
1.88906 	0.20001 	-6.97448e-17 	4.86853 	2.38006
1.89219 	0.20001 	-6.93978e-17 	4.87083 	2.38166
1.89531 	0.20001 	-7.21734e-17 	4.86939 	2.38234
1.89844 	0.20001 	-7.35612e-17 	4.86411 	2.38228
1.90156 	0.20001 	-7.49489e-17 	4.85433 	2.38135
1.90469 	0.20001 	-7.77245e-17 	4.83566 	2.3788
1.90781 	0.20001 	-7.4255e-17 	4.80126 	2.37383
1.91094 	0.20001 	-6.93978e-17 	4.76133 	2.36797
1.91406 	0.20001 	-7.07856e-17 	4.73442 	2.36367
1.91719 	0.20001 	-7.07856e-17 	4.72046 	2.36108
1.92031 	0.20001 	-6.93978e-17 	4.71205 	2.3593
1.92344 	0.20001 	-7.07856e-17 	4.70558 	2.35781
1.92656 	0.20001 	-7.21734e-17 	4.70412 	2.35712
1.92969 	0.20001 	-7.07856e-17 	4.70873 	2.35719
1.93281 	0.20001 	-6.801e-17 	4.7162 	2.35765
1.93594 	0.20001 	-6.31528e-17 	4.72354 	2.35813
1.93906 	0.20001 	-5.96834e-17 	4.72628 	2.35804
1.94219 	0.20001 	-5.79486e-17 	4.71981 	2.35652
1.94531 	0.20001 	-5.27445e-17 	4.70849 	2.35453
1.94844 	0.20001 	-4.75403e-17 	4.68948 	2.35164
1.95156 	0.20001 	-4.58056e-17 	4.6644 	2.34804
1.95469 	0.20001 	-4.71934e-17 	4.64633 	2.34549
1.95781 	0.20001 	-4.85811e-17 	4.63627 	2.3441
1.96094 	0.20001 	-4.51117e-17 	4.62866 	2.34307
1.96406 	0.20001 	-4.303e-17 	4.62371 	2.34243
1.96719 	0.20001 	-4.44178e-17 	4.62012 	2.34197
1.97031 	0.20001 	-4.44178e-17 	4.61365 	2.341
1.97344 	0.20001 	-4.303e-17 	4.60414 	2.33958
1.97656 	0.20001 	-4.16422e-17 	4.59058 	2.3376
1.97969 	0.20001 	-4.02545e-17 	4.5695 	2.33459
1.98281 	0.20001 	-3.88667e-17 	4.54918 	2.33185
1.98594 	0.20001 	-3.88667e-17 	4.53667 	2.33029
1.98906 	0.20001 	-3.88667e-17 	4.5288 	2.32946
1.99219 	0.20001 	-3.53972e-17 	4.52467 	2.3292
1.99531 	0.20001 	-3.054e-17 	4.5268 	2.32994
1.99844 	0.20001 	-3.054e-17 	4.53201 	2.33127
2.00156 	0.20001 	-3.33156e-17 	4.53285 	2.33178
2.00469 	0.20001 	-3.47034e-17 	4.52971 	2.33179
2.00781 	0.20001 	-3.15808e-17 	4.52421 	2.33142
2.01094 	0.20001 	-2.70706e-17 	4.51564 	2.33033
2.01406 	0.20001 	-2.70706e-17 	4.50018 	2.32812
2.01719 	0.20001 	-2.70706e-17 	4.47644 	2.32466
2.02031 	0.20001 	-2.22133e-17 	4.45499 	2.32157
2.02344 	0.20001 	-1.8397e-17 	4.44186 	2.31976
2.02656 	0.20001 	-1.94378e-17 	4.43345 	2.31873
2.02969 	0.20001 	-2.08256e-17 	4.42704 	2.31815
2.03281 	0.20001 	-2.08256e-17 	4.42283 	2.31804
2.03594 	0.20001 	-2.08256e-17 	4.42199 	2.31853
2.03906 	0.20001 	-2.08256e-17 	4.42487 	2.31995
2.04219 	0.20001 	-1.94378e-17 	4.42989 	2.32179
2.04531 	0.20001 	-1.94378e-17 	4.4353 	2.32367
2.04844 	0.20001 	-1.94378e-17 	4.44003 	2.32537
2.05156 	0.20001 	-1.59683e-17 	4.44164 	2.32644
2.05469 	0.20001 	-1.38867e-17 	4.43847 	2.32676
2.05781 	0.20001 	-1.38867e-17 	4.43031 	2.32645
2.06094 	0.20001 	-1.24989e-17 	4.41553 	2.32499
2.06406 	0.20001 	-1.24989e-17 	4.38689 	2.32126
2.06719 	0.20001 	-1.04172e-17 	4.3405 	2.31477
2.07031 	0.20001 	-6.94778e-18 	4.29462 	2.30841
2.07344 	0.20001 	-6.94778e-18 	4.26445 	2.30428
2.07656 	0.20001 	-6.94778e-18 	4.24737 	2.30207
2.07969 	0.20001 	-5.21305e-18 	4.23734 	2.30098
2.08281 	0.20001 	1.3789e-18 	4.23027 	2.30038
2.08594 	0.20001 	6.23612e-18 	4.22437 	2.29994
2.08906 	0.20001 	7.6239e-18 	4.21911 	2.29948
2.09219 	0.20001 	9.01168e-18 	4.21467 	2.29897
2.09531 	0.20001 	9.35862e-18 	4.21142 	2.29848
2.09844 	0.20001 	1.3175e-17 	4.20928 	2.29798
2.10156 	0.20001 	1.66445e-17 	4.20806 	2.29745
2.10469 	0.20001 	1.52567e-17 	4.20764 	2.29691
2.10781 	0.20001 	1.56036e-17 	4.20681 	2.29622
2.11094 	0.20001 	1.87261e-17 	4.20423 	2.29522
2.11406 	0.20001 	2.01139e-17 	4.20031 	2.29408
2.11719 	0.20001 	2.01139e-17 	4.19546 	2.29284
2.12031 	0.20001 	2.15017e-17 	4.18869 	2.29137
2.12344 	0.20001 	2.28895e-17 	4.17921 	2.28953
2.12656 	0.20001 	2.11547e-17 	4.16633 	2.28723
2.12969 	0.20001 	1.942e-17 	4.14829 	2.28418
2.13281 	0.20001 	2.08078e-17 	4.12413 	2.28022
2.13594 	0.20001 	2.08078e-17 	4.10139 	2.27657
2.13906 	0.20001 	1.9767e-17 	4.0843 	2.27375
2.14219 	0.20001 	2.01139e-17 	4.07336 	2.27187
2.14531 	0.20001 	2.01139e-17 	4.06647 	2.27066
2.14844 	0.20001 	2.04609e-17 	4.0623 	2.26994
2.15156 	0.20001 	2.08078e-17 	4.06253 	2.26997
2.15469 	0.20001 	2.08078e-17 	4.06532 	2.2704
2.15781 	0.20001 	2.08078e-17 	4.06653 	2.27061
2.16094 	0.20001 	2.08078e-17 	4.06477 	2.27036
2.16406 	0.20001 	2.08078e-17 	4.06036 	2.26972
2.16719 	0.20001 	2.08078e-17 	4.05448 	2.26889
2.17031 	0.20001 	2.08078e-17 	4.04733 	2.26791
2.17344 	0.20001 	2.08078e-17 	4.03727 	2.26652
2.17656 	0.20001 	2.08078e-17 	4.02505 	2.26483
2.17969 	0.20001 	2.08078e-17 	4.01495 	2.26352
2.18281 	0.20001 	2.08078e-17 	4.00837 	2.2628
2.18594 	0.20001 	2.08078e-17 	4.00259 	2.26227
2.18906 	0.20001 	2.08078e-17 	3.99692 	2.26183
2.19219 	0.20001 	2.08078e-17 	3.99035 	2.26131
2.19531 	0.20001 	2.08078e-17 	3.98175 	2.26054
2.19844 	0.20001 	2.08078e-17 	3.968 	2.25901
2.20156 	0.20001 	2.08078e-17 	3.94937 	2.25678
2.20469 	0.20001 	2.08078e-17 	3.93018 	2.25452
2.20781 	0.20001 	2.08078e-17 	3.91158 	2.25228
2.21094 	0.20001 	2.08078e-17 	3.89498 	2.25028
2.21406 	0.20001 	2.08078e-17 	3.88202 	2.24885
2.21719 	0.20001 	2.08078e-17 	3.87329 	2.24817
2.22031 	0.20001 	2.08078e-17 	3.86798 	2.24803
2.22344 	0.20001 	2.08078e-17 	3.86481 	2.24811
2.22656 	0.20001 	2.08078e-17 	3.86528 	2.24873
2.22969 	0.20001 	2.08078e-17 	3.87006 	2.25004
2.23281 	0.20001 	2.08078e-17 	3.87668 	2.25136
2.23594 	0.20001 	2.08078e-17 	3.88463 	2.25269
2.23906 	0.20001 	1.90731e-17 	3.89462 	2.25412
2.24219 	0.20001 	1.73384e-17 	3.90649 	2.25557
2.24531 	0.20001 	1.73384e-17 	3.9165 	2.25642
2.24844 	0.20001 	1.73384e-17 	3.91871 	2.25605
2.25156 	0.20001 	1.73384e-17 	3.91094 	2.2536
2.25469 	0.20001 	1.73384e-17 	3.89602 	2.25002
2.25781 	0.20001 	1.73384e-17 	3.86618 	2.24405
2.26094 	0.20001 	1.73384e-17 	3.81237 	2.2342
2.26406 	0.20001 	1.73384e-17 	3.75333 	2.22353
2.26719 	0.20001 	1.73384e-17 	3.71134 	2.21544
2.27031 	0.20001 	1.73384e-17 	3.68887 	2.21076
2.27344 	0.20001 	1.73384e-17 	3.67955 	2.20856
2.27656 	0.20001 	1.73384e-17 	3.67598 	2.20759
2.27969 	0.20001 	1.73384e-17 	3.67924 	2.20786
2.28281 	0.20001 	1.73384e-17 	3.6932 	2.20997
2.28594 	0.20001 	1.87261e-17 	3.71794 	2.2141
2.28906 	0.20001 	2.01139e-17 	3.75017 	2.2196
2.29219 	0.20001 	2.01139e-17 	3.78595 	2.22567
2.29531 	0.20001 	2.01139e-17 	3.81885 	2.23115
2.29844 	0.20001 	2.01139e-17 	3.83799 	2.23435
2.30156 	0.20001 	1.83792e-17 	3.84133 	2.23495
2.30469 	0.20001 	1.66445e-17 	3.83419 	2.23389
2.30781 	0.20001 	1.66445e-17 	3.81861 	2.23153
2.31094 	0.20001 	1.66445e-17 	3.78999 	2.22702
2.31406 	0.20001 	1.66445e-17 	3.74515 	2.21972
2.31719 	0.20001 	1.66445e-17 	3.68168 	2.20921
2.32031 	0.20001 	1.52567e-17 	3.61965 	2.19895
2.32344 	0.20001 	1.38689e-17 	3.57639 	2.19153
2.32656 	0.20001 	1.38689e-17 	3.5554 	2.188
2.32969 	0.20001 	1.38689e-17 	3.54862 	2.18715
2.33281 	0.20001 	1.38689e-17 	3.54757 	2.18728
2.33594 	0.20001 	1.38689e-17 	3.55739 	2.18966
2.33906 	0.20001 	1.38689e-17 	3.57321 	2.19315
2.34219 	0.20001 	1.38689e-17 	3.58357 	2.19579
2.34531 	0.20001 	1.38689e-17 	3.58744 	2.19735
2.34844 	0.20001 	1.52567e-17 	3.58792 	2.19825
2.35156 	0.20001 	1.66445e-17 	3.58676 	2.19898
2.35469 	0.20001 	1.66445e-17 	3.58398 	2.19944
2.35781 	0.20001 	1.66445e-17 	3.57953 	2.19959
2.36094 	0.20001 	1.66445e-17 	3.57546 	2.19975
2.36406 	0.20001 	1.66445e-17 	3.57187 	2.19998
2.36719 	0.20001 	1.66445e-17 	3.56889 	2.20036
2.37031 	0.20001 	1.66445e-17 	3.5666 	2.2009
2.37344 	0.20001 	1.66445e-17 	3.56455 	2.20148
2.37656 	0.20001 	1.66445e-17 	3.56164 	2.20182
2.37969 	0.20001 	1.66445e-17 	3.55718 	2.20184
2.38281 	0.20001 	1.66445e-17 	3.55017 	2.20139
2.38594 	0.20001 	1.83792e-17 	3.53816 	2.19993
2.38906 	0.20001 	2.18486e-17 	3.51755 	2.19683
2.39219 	0.20001 	2.35834e-17 	3.48583 	2.19167
2.39531 	0.20001 	2.35834e-17 	3.45081 	2.18596
2.39844 	0.20001 	2.35834e-17 	3.42323 	2.18144
2.40156 	0.20001 	2.35834e-17 	3.40484 	2.17836
2.40469 	0.20001 	2.35834e-17 	3.39545 	2.17679
2.40781 	0.20001 	2.49711e-17 	3.39161 	2.17621
2.41094 	0.20001 	2.63589e-17 	3.3899 	2.176
2.41406 	0.20001 	2.49711e-17 	3.39452 	2.17702
2.41719 	0.20001 	2.35834e-17 	3.40849 	2.17978
2.42031 	0.20001 	2.49711e-17 	3.42627 	2.18321
2.42344 	0.20001 	2.63589e-17 	3.44358 	2.18661
2.42656 	0.20001 	2.63589e-17 	3.46149 	2.19012
2.42969 	0.20001 	2.80936e-17 	3.47955 	2.19353
2.43281 	0.20001 	3.12161e-17 	3.48973 	2.19538
2.43594 	0.20001 	3.26039e-17 	3.48862 	2.19514
2.43906 	0.20001 	3.26039e-17 	3.47939 	2.19332
2.44219 	0.20001 	3.26039e-17 	3.45729 	2.18896
2.44531 	0.20001 	3.26039e-17 	3.41453 	2.18061
2.44844 	0.20001 	3.26039e-17 	3.34951 	2.16793
2.45156 	0.20001 	3.08692e-17 	3.28963 	2.1558
2.45469 	0.20001 	2.91345e-17 	3.25339 	2.14763
2.45781 	0.20001 	2.91345e-17 	3.23674 	2.14321
2.46094 	0.20001 	2.91345e-17 	3.23075 	2.14099
2.46406 	0.20001 	2.91345e-17 	3.22984 	2.14004
2.46719 	0.20001 	2.91345e-17 	3.23678 	2.14032
2.47031 	0.20001 	2.91345e-17 	3.25401 	2.14265
2.47344 	0.20001 	3.05223e-17 	3.28378 	2.14777
2.47656 	0.20001 	3.191e-17 	3.32696 	2.15552
2.47969 	0.20001 	3.191e-17 	3.37951 	2.16487
2.48281 	0.20001 	3.05223e-17 	3.41782 	2.17152
2.48594 	0.20001 	2.91345e-17 	3.42787 	2.17318
2.48906 	0.20001 	2.91345e-17 	3.42035 	2.17176
2.49219 	0.20001 	2.91345e-17 	3.40017 	2.16815
2.49531 	0.20001 	2.91345e-17 	3.3574 	2.16048
2.49844 	0.20001 	2.91345e-17 	3.2851 	2.14724
2.50156 	0.20001 	2.91345e-17 	3.21118 	2.13348
2.50469 	0.20001 	2.91345e-17 	3.16469 	2.12441
2.50781 	0.20001 	2.91345e-17 	3.14478 	2.12059
2.51094 	0.20001 	3.05223e-17 	3.13986 	2.11983
2.51406 	0.20001 	3.191e-17 	3.14164 	2.1204