0.601563 	0.20001 	-6.1765e-17 	1.24799 	1.53522 	0
0.604688 	0.20001 	-6.03773e-17 	1.29611 	1.41092 	0
0.607813 	0.20001 	-5.76017e-17 	0.863666 	0.937085 	0
0.610938 	0.20001 	-5.62139e-17 	0.536806 	0.466207 	0
0.614063 	0.20001 	-5.62139e-17 	0.910523 	0.439839 	0
0.617188 	0.20001 	-5.62139e-17 	1.82932 	0.125721 	0
0.620313 	0.20001 	-5.79486e-17 	2.29377 	-0.276294 	0
0.623438 	0.20001 	-6.10711e-17 	2.42263 	-0.394862 	0
0.626563 	0.20001 	-6.24589e-17 	2.5029 	-0.394784 	0
0.629688 	0.20001 	-6.24589e-17 	2.54494 	-0.336402 	0
0.632813 	0.20001 	-6.38467e-17 	2.47051 	-0.37872 	0
0.635938 	0.20001 	-6.52345e-17 	2.41015 	-0.478054 	0
0.639063 	0.20001 	-6.66223e-17 	2.5527 	-0.567984 	0
0.642188 	0.20001 	-6.93978e-17 	2.60355 	-0.448882 	0
0.645313 	0.20001 	-7.21734e-17 	2.6463 	-0.32326 	0
0.648438 	0.20001 	-7.21734e-17 	2.74974 	-0.251922 	0
0.651563 	0.20001 	-7.07856e-17 	2.84832 	-0.19391 	0
0.654688 	0.20001 	-7.07856e-17 	2.88859 	-0.219514 	0
0.657813 	0.20001 	-7.07856e-17 	2.91492 	-0.254524 	0
0.660938 	0.20001 	-7.21734e-17 	2.94846 	-0.259601 	0
0.664063 	0.20001 	-7.49489e-17 	3.00449 	-0.261729 	0
0.667188 	0.20001 	-7.98062e-17 	3.05412 	-0.269701 	0
0.670313 	0.20001 	-8.32756e-17 	3.04368 	-0.266461 	0
0.673438 	0.20001 	-8.32756e-17 	3.01395 	-0.257261 	0
0.676563 	0.20001 	-8.32756e-17 	2.94187 	-0.228963 	0
0.679688 	0.20001 	-8.18878e-17 	2.89316 	-0.199075 	0
0.682813 	0.20001 	-8.05001e-17 	2.85382 	-0.182727 	0
0.685938 	0.20001 	-8.05001e-17 	2.82563 	-0.194301 	0
0.689063 	0.20001 	-8.39695e-17 	2.87287 	-0.179911 	0
0.692188 	0.20001 	-8.74389e-17 	2.96947 	-0.150898 	0
0.695313 	0.20001 	-8.88267e-17 	3.0334 	-0.100626 	0
0.698438 	0.20001 	-9.02145e-17 	3.03001 	-0.0795491 	0
0.701563 	0.20001 	-9.02145e-17 	2.953 	-0.0838242 	0
0.704688 	0.20001 	-9.19492e-17 	2.91485 	-0.0947758 	0
0.707813 	0.20001 	-9.36839e-17 	2.89788 	-0.100378 	0
0.710938 	0.20001 	-9.36839e-17 	2.8636 	-0.0957869 	0
0.714063 	0.20001 	-9.36839e-17 	2.83609 	-0.0889676 	0
0.717188 	0.20001 	-9.50717e-17 	2.77637 	-0.0704788 	0
0.720313 	0.20001 	-9.9929e-17 	2.72111 	-0.0673391 	0
0.723438 	0.20001 	-1.03398e-16 	2.72589 	-0.0793163 	0
0.726563 	0.20001 	-1.04786e-16 	2.78816 	-0.0873424 	0
0.729688 	0.20001 	-1.07909e-16 	2.84065 	-0.0789415 	0
0.732813 	0.20001 	-1.09643e-16 	2.80995 	-0.0754687 	0
0.735938 	0.20001 	-1.11031e-16 	2.78233 	-0.075306 	0
0.739063 	0.20001 	-1.13807e-16 	2.76381 	-0.0639862 	0
0.742188 	0.20001 	-1.16582e-16 	2.74699 	-0.0510514 	0
0.745313 	0.20001 	-1.19358e-16 	2.7149 	-0.0474649 	0
0.748438 	0.20001 	-1.24215e-16 	2.69369 	-0.0525784 	0
0.751563 	0.20001 	-1.29072e-16 	2.71725 	-0.0632092 	0
0.754688 	0.20001 	-1.3046e-16 	2.75317 	-0.0594101 	0
0.757813 	0.20001 	-1.3046e-16 	2.74762 	-0.0500036 	0
0.760938 	0.20001 	-1.29072e-16 	2.71916 	-0.0446585 	0
0.764063 	0.20001 	-1.29072e-16 	2.68122 	-0.0459083 	0
0.767188 	0.20001 	-1.31848e-16 	2.65944 	-0.0510528 	0
0.770313 	0.20001 	-1.34623e-16 	2.66022 	-0.056941 	0
0.773438 	0.20001 	-1.39481e-16 	2.67693 	-0.0450988 	0
0.776563 	0.20001 	-1.4295e-16 	2.69196 	-0.0270211 	0
0.779688 	0.20001 	-1.41562e-16 	2.69558 	-0.0218294 	0
0.782813 	0.20001 	-1.40175e-16 	2.66415 	-0.029389 	0
0.785938 	0.20001 	-1.40175e-16 	2.64524 	-0.0334959 	0
0.789063 	0.20001 	-1.40175e-16 	2.63984 	-0.0394975 	0
0.792188 	0.20001 	-1.41909e-16 	2.63905 	-0.0438734 	0
0.795313 	0.20001 	-1.43644e-16 	2.63456 	-0.0389141 	0
0.798438 	0.20001 	-1.43644e-16 	2.62828 	-0.0297013 	0
0.801563 	0.20001 	-1.43644e-16 	2.62375 	-0.023325 	0
0.804688 	0.20001 	-1.43644e-16 	2.6284 	-0.0235056 	0
0.807813 	0.20001 	-1.48501e-16 	2.63658 	-0.0219473 	0
0.810938 	0.20001 	-1.53358e-16 	2.6424 	-0.0153053 	0
0.814063 	0.20001 	-1.53358e-16 	2.6417 	-0.0118973 	0
0.817188 	0.20001 	-1.53358e-16 	2.62941 	-0.0115954 	0
0.820313 	0.20001 	-1.53358e-16 	2.61544 	-0.0126292 	0
0.823438 	0.20001 	-1.54746e-16 	2.60418 	-0.01676 	0
0.826563 	0.20001 	-1.56134e-16 	2.59764 	-0.019738 	0
0.829688 	0.20001 	-1.56134e-16 	2.59726 	-0.0233564 	0
0.832813 	0.20001 	-1.56134e-16 	2.605 	-0.0239403 	0
0.835938 	0.20001 	-1.56134e-16 	2.61473 	-0.0194857 	0
0.839063 	0.20001 	-1.56134e-16 	2.60384 	-0.0185429 	0
0.842188 	0.20001 	-1.56134e-16 	2.58751 	-0.0180608 	0
0.845313 	0.20001 	-1.57522e-16 	2.57506 	-0.0163682 	0
0.848438 	0.20001 	-1.60644e-16 	2.56566 	-0.0159921 	0
0.851563 	0.20001 	-1.62379e-16 	2.56017 	-0.0174535 	0
0.854688 	0.20001 	-1.62379e-16 	2.5612 	-0.0178004 	0
0.857813 	0.20001 	-1.62379e-16 	2.5653 	-0.0151775 	0
0.860938 	0.20001 	-1.62379e-16 	2.57283 	-0.012938 	0
0.864063 	0.20001 	-1.62379e-16 	2.58619 	-0.0141644 	0
0.867188 	0.20001 	-1.62379e-16 	2.59755 	-0.0145225 	0
0.870313 	0.20001 	-1.63767e-16 	2.59509 	-0.0135947 	0
0.873438 	0.20001 	-1.63767e-16 	2.58888 	-0.0124844 	0
0.876563 	0.20001 	-1.62379e-16 	2.57745 	-0.0103101 	0
0.879688 	0.20001 	-1.62379e-16 	2.56641 	-0.00957409 	0
0.882813 	0.20001 	-1.63767e-16 	2.5512 	-0.0100463 	0
0.885938 	0.20001 	-1.65155e-16 	2.54091 	-0.0120915 	0
0.889063 	0.20001 	-1.65155e-16 	2.53756 	-0.0123335 	0
0.892188 	0.20001 	-1.65155e-16 	2.54439 	-0.0083736 	0
0.895313 	0.20001 	-1.63767e-16 	2.55791 	-0.0029857 	0
0.898438 	0.20001 	-1.62379e-16 	2.56069 	-0.000600083 	0
0.901563 	0.20001 	-1.62379e-16 	2.55778 	-0.000284447 	0
0.904688 	0.20001 	-1.62379e-16 	2.55349 	-0.00137712 	0
0.907813 	0.20001 	-1.60991e-16 	2.54493 	-0.00289221 	0
0.910938 	0.20001 	-1.59603e-16 	2.53489 	-0.00494401 	0
0.914063 	0.20001 	-1.59603e-16 	2.53185 	-0.0061357 	0
0.917188 	0.20001 	-1.58216e-16 	2.5281 	-0.00611077 	0
0.920313 	0.20001 	-1.5544e-16 	2.52346 	-0.005351 	0
0.923438 	0.20001 	-1.57522e-16 	2.52073 	-0.00591684 	0
0.926563 	0.20001 	-1.64461e-16 	2.5266 	-0.00776706 	0
0.929688 	0.20001 	-1.6793e-16 	2.53407 	-0.00905558 	0
0.932813 	0.20001 	-1.6793e-16 	2.53143 	-0.00940647 	0
0.935938 	0.20001 	-1.6793e-16 	2.52964 	-0.00951481 	0
0.939063 	0.20001 	-1.6793e-16 	2.52817 	-0.00910776 	0
0.942188 	0.20001 	-1.69318e-16 	2.52496 	-0.00645986 	0
0.945313 	0.20001 	-1.69318e-16 	2.52199 	-0.00461729 	0
0.948438 	0.20001 	-1.6793e-16 	2.51738 	-0.00423912 	0
0.951563 	0.20001 	-1.6793e-16 	2.51371 	-0.00436621 	0
0.954688 	0.20001 	-1.66542e-16 	2.51353 	-0.00515847 	0
0.957813 	0.20001 	-1.63767e-16 	2.51908 	-0.00664591 	0
0.960938 	0.20001 	-1.63767e-16 	2.5263 	-0.00890543 	0
0.964063 	0.20001 	-1.63767e-16 	2.52803 	-0.00984559 	0
0.967188 	0.20001 	-1.60991e-16 	2.52616 	-0.00875947 	0
0.970313 	0.20001 	-1.60991e-16 	2.52207 	-0.0081743 	0
0.973438 	0.20001 	-1.64114e-16 	2.51773 	-0.0078673 	0
0.976563 	0.20001 	-1.65848e-16 	2.51343 	-0.00731025 	0
0.979688 	0.20001 	-1.65848e-16 	2.51002 	-0.00627614 	0
0.982813 	0.20001 	-1.69318e-16 	2.50799 	-0.00532351 	0
0.985938 	0.20001 	-1.74175e-16 	2.50767 	-0.00447792 	0
0.989063 	0.20001 	-1.75563e-16 	2.5106 	-0.00419081 	0
0.992188 	0.20001 	-1.75563e-16 	2.51103 	-0.00440032 	0
0.995313 	0.20001 	-1.75563e-16 	2.50886 	-0.00435733 	0
0.998438 	0.20001 	-1.75563e-16 	2.50657 	-0.00417933 	0
1.00156 	0.20001 	-1.75563e-16 	2.50357 	-0.00378957 	0
1.00469 	0.20001 	-1.75563e-16 	2.49984 	-0.00345295 	0
1.00781 	0.20001 	-1.75563e-16 	2.4964 	-0.00316469 	0
1.01094 	0.20001 	-1.75563e-16 	2.49401 	-0.00278279 	0
1.01406 	0.20001 	-1.77298e-16 	2.4934 	-0.00235825 	0
1.01719 	0.20001 	-1.79032e-16 	2.49709 	-0.00275692 	0
1.02031 	0.20001 	-1.79032e-16 	2.5028 	-0.0037275 	0
1.02344 	0.20001 	-1.8042e-16 	2.50281 	-0.00393592 	0
1.02656 	0.20001 	-1.81808e-16 	2.50122 	-0.00379559 	0
1.02969 	0.20001 	-1.81808e-16 	2.49918 	-0.00350748 	0
1.03281 	0.20001 	-1.83196e-16 	2.49564 	-0.00343619 	0
1.03594 	0.20001 	-1.84583e-16 	2.48998 	-0.00357611 	0
1.03906 	0.20001 	-1.88053e-16 	2.48634 	-0.00365083 	0
1.04219 	0.20001 	-1.94992e-16 	2.48474 	-0.00355915 	0
1.04531 	0.20001 	-1.98461e-16 	2.48196 	-0.00278819 	0
1.04844 	0.20001 	-1.98461e-16 	2.47955 	-0.00226979 	0
1.05156 	0.20001 	-1.98461e-16 	2.47788 	-0.00227844 	0
1.05469 	0.20001 	-1.97073e-16 	2.47828 	-0.00239452 	0
1.05781 	0.20001 	-1.95686e-16 	2.48123 	-0.00260806 	0
1.06094 	0.20001 	-1.95686e-16 	2.4831 	-0.00298497 	0
1.06406 	0.20001 	-1.95686e-16 	2.48255 	-0.00364147 	0
1.06719 	0.20001 	-1.95686e-16 	2.48184 	-0.00432333 	0
1.07031 	0.20001 	-1.97073e-16 	2.48156 	-0.00499147 	0
1.07344 	0.20001 	-2.00196e-16 	2.48191 	-0.00519511 	0
1.07656 	0.20001 	-2.01931e-16 	2.48254 	-0.00462317 	0
1.07969 	0.20001 	-2.01931e-16 	2.48266 	-0.00387813 	0
1.08281 	0.20001 	-2.01931e-16 	2.48251 	-0.0033785 	0
1.08594 	0.20001 	-2.01931e-16 	2.48409 	-0.00291483 	0
1.08906 	0.20001 	-2.00543e-16 	2.48769 	-0.00231274 	0
1.09219 	0.20001 	-1.99155e-16 	2.48857 	-0.0019187 	0
1.09531 	0.20001 	-1.99155e-16 	2.48723 	-0.00185006 	0
1.09844 	0.20001 	-1.99155e-16 	2.48615 	-0.00191675 	0
1.10156 	0.20001 	-1.99155e-16 	2.48474 	-0.00229428 	0
1.10469 	0.20001 	-1.99155e-16 	2.48295 	-0.00292404 	0
1.10781 	0.20001 	-1.99155e-16 	2.48112 	-0.0034404 	0
1.11094 	0.20001 	-1.99155e-16 	2.48252 	-0.00351775 	0
1.11406 	0.20001 	-1.97767e-16 	2.48404 	-0.00344912 	0
1.11719 	0.20001 	-2.01237e-16 	2.48609 	-0.00289369 	0
1.12031 	0.20001 	-2.06094e-16 	2.48653 	-0.0016689 	0
1.12344 	0.20001 	-2.07829e-16 	2.48511 	-0.00085798 	0
1.12656 	0.20001 	-2.09563e-16 	2.48313 	-8.31647e-05 	0
1.12969 	0.20001 	-2.09563e-16 	2.47997 	0.000131664 	0
1.13281 	0.20001 	-2.09563e-16 	2.47651 	-6.65548e-05 	0
1.13594 	0.20001 	-2.09563e-16 	2.47333 	-0.000278494 	0
1.13906 	0.20001 	-2.09563e-16 	2.47065 	-0.00116997 	0
1.14219 	0.20001 	-2.09563e-16 	2.46936 	-0.00250257 	0
1.14531 	0.20001 	-2.08176e-16 	2.46993 	-0.00264511 	0
1.14844 	0.20001 	-2.06788e-16 	2.4721 	-0.00213808 	0
1.15156 	0.20001 	-2.06788e-16 	2.47455 	-0.00156098 	0
1.15469 	0.20001 	-2.06788e-16 	2.47487 	-0.00123385 	0
1.15781 	0.20001 	-2.06788e-16 	2.47422 	-0.00119824 	0
1.16094 	0.20001 	-2.06788e-16 	2.4736 	-0.00107292 	0
1.16406 	0.20001 	-2.054e-16 	2.47253 	-0.000826638 	0
1.16719 	0.20001 	-2.02625e-16 	2.47118 	-0.000803189 	0
1.17031 	0.20001 	-2.04706e-16 	2.47018 	-0.000998066 	0
1.17344 	0.20001 	-2.08176e-16 	2.47088 	-0.00106846 	0
1.17656 	0.20001 	-2.11645e-16 	2.47155 	-0.0011596 	0
1.17969 	0.20001 	-2.15115e-16 	2.47226 	-0.00168093 	0
1.18281 	0.20001 	-2.15115e-16 	2.47218 	-0.00221934 	0
1.18594 	0.20001 	-2.15115e-16 	2.47186 	-0.00234864 	0
1.18906 	0.20001 	-2.15115e-16 	2.47147 	-0.00221283 	0
1.19219 	0.20001 	-2.15115e-16 	2.47093 	-0.0018836 	0
1.19531 	0.20001 	-2.15115e-16 	2.47023 	-0.00152836 	0
1.19844 	0.20001 	-2.15115e-16 	2.46943 	-0.00117622 	0
1.20156 	0.20001 	-2.15115e-16 	2.46875 	-0.000712979 	0
1.20469 	0.20001 	-2.15115e-16 	2.4696 	-0.000313723 	0
1.20781 	0.20001 	-2.13727e-16 	2.47187 	-0.000183036 	0
1.21094 	0.20001 	-2.12686e-16 	2.47247 	-0.000309337 	0
1.21406 	0.20001 	-2.11298e-16 	2.4721 	-0.000423526 	0
1.21719 	0.20001 	-2.10951e-16 	2.47175 	-0.000663016 	0
1.22031 	0.20001 	-2.10951e-16 	2.47102 	-0.00102329 	0
1.22344 	0.20001 	-2.09563e-16 	2.46954 	-0.00134677 	0
1.22656 	0.20001 	-2.12686e-16 	2.46822 	-0.00152395 	0
1.22969 	0.20001 	-2.17196e-16 	2.46835 	-0.00155369 	0
1.23281 	0.20001 	-2.22053e-16 	2.46855 	-0.00154528 	0
1.23594 	0.20001 	-2.25523e-16 	2.46914 	-0.00146225 	0
1.23906 	0.20001 	-2.25523e-16 	2.4706 	-0.00131488 	0
1.24219 	0.20001 	-2.26911e-16 	2.47223 	-0.00111271 	0
1.24531 	0.20001 	-2.28298e-16 	2.47251 	-0.000981592 	0
1.24844 	0.20001 	-2.30033e-16 	2.47233 	-0.000882319 	0
1.25156 	0.20001 	-2.31768e-16 	2.47158 	-0.000647801 	0
1.25469 	0.20001 	-2.30033e-16 	2.46978 	-0.000302202 	0
1.25781 	0.20001 	-2.28298e-16 	2.46734 	-3.92106e-06 	0
1.26094 	0.20001 	-2.29686e-16 	2.46649 	5.69413e-05 	0
1.26406 	0.20001 	-2.32462e-16 	2.46543 	-4.03952e-06 	0
1.26719 	0.20001 	-2.31768e-16 	2.46497 	-0.000253689 	0
1.27031 	0.20001 	-2.26564e-16 	2.46554 	-0.000570021 	0
1.27344 	0.20001 	-2.22053e-16 	2.46712 	-0.000717198 	0
1.27656 	0.20001 	-2.15808e-16 	2.46908 	-0.000647632 	0
1.27969 	0.20001 	-2.09563e-16 	2.47077 	-0.000503438 	0
1.28281 	0.20001 	-2.08176e-16 	2.47167 	-0.000535101 	0
1.28594 	0.20001 	-2.09563e-16 	2.47128 	-0.00071906 	0
1.28906 	0.20001 	-2.09563e-16 	2.47082 	-0.000837628 	0
1.29219 	0.20001 	-2.08176e-16 	2.47048 	-0.000859667 	0
1.29531 	0.20001 	-2.08176e-16 	2.47008 	-0.000602708 	0
1.29844 	0.20001 	-2.09563e-16 	2.46953 	-8.27349e-05 	0
1.30156 	0.20001 	-2.10951e-16 	2.46893 	0.000383535 	0
1.30469 	0.20001 	-2.14421e-16 	2.46812 	0.00101908 	0
1.30781 	0.20001 	-2.14421e-16 	2.46666 	0.000750596 	0
1.31094 	0.20001 	-2.10951e-16 	2.46324 	-0.00203393 	0
1.31406 	0.20001 	-2.07482e-16 	2.42855 	-0.0254843 	0
1.31719 	0.20001 	-2.02625e-16 	2.29927 	-0.083328 	0
1.32031 	0.20001 	-2.02625e-16 	2.01207 	-0.237921 	0
1.32344 	0.20001 	-2.02278e-16 	1.63126 	-0.173615 	0
1.32656 	0.20001 	-2.00543e-16 	1.29059 	-0.0934279 	0
1.32969 	0.20001 	-2.01931e-16 	1.29752 	-0.041466 	0
1.33281 	0.20001 	-2.04706e-16 	1.31735 	-0.0108027 	0
1.33594 	0.20001 	-2.06094e-16 	1.30857 	0.000884059 	0
1.33906 	0.20001 	-2.06094e-16 	1.29864 	0.00287386 	0
1.34219 	0.20001 	-2.04706e-16 	1.2932 	0.00192897 	0
1.34531 	0.20001 	-2.03318e-16 	1.29367 	0.00138871 	0
1.34844 	0.20001 	-1.98461e-16 	1.29272 	0.00131295 	0
1.35156 	0.20001 	-1.90482e-16 	1.28985 	0.00129835 	0
1.35469 	0.20001 	-1.87359e-16 	1.28496 	0.00126405 	0
1.35781 	0.20001 	-1.82502e-16 	1.27955 	0.0011521 	0
1.36094 	0.20001 	-1.74175e-16 	1.27944 	0.00122601 	0
1.36406 	0.20001 	-1.70706e-16 	1.28064 	0.00133946 	0
1.36719 	0.20001 	-1.70706e-16 	1.27992 	0.00165953 	0
1.37031 	0.20001 	-1.72093e-16 	1.27807 	0.00221883 	0
1.37344 	0.20001 	-1.70359e-16 	1.27644 	0.00236359 	0
1.37656 	0.20001 	-1.67236e-16 	1.27568 	0.00227285 	0
1.37969 	0.20001 	-1.67236e-16 	1.27763 	0.00192584 	0
1.38281 	0.20001 	-1.67236e-16 	1.27949 	0.00152586 	0
1.38594 	0.20001 	-1.67236e-16 	1.28045 	0.0013729 	0
1.38906 	0.20001 	-1.67236e-16 	1.28045 	0.001181 	0
1.39219 	0.20001 	-1.67236e-16 	1.28 	0.00103922 	0
1.39531 	0.20001 	-1.67236e-16 	1.2813 	0.000857102 	0
1.39844 	0.20001 	-1.67236e-16 	1.28385 	0.000320399 	0
1.40156 	0.20001 	-1.67236e-16 	1.28748 	-0.000608564 	0
1.40469 	0.20001 	-1.67236e-16 	1.28965 	-0.00119039 	0
1.40781 	0.20001 	-1.67236e-16 	1.29089 	-0.00136465 	0
1.41094 	0.20001 	-1.67236e-16 	1.29099 	-0.00131557 	0
1.41406 	0.20001 	-1.67236e-16 	1.29033 	-0.00100859 	0
1.41719 	0.20001 	-1.67236e-16 	1.29103 	-0.000723635 	0
1.42031 	0.20001 	-1.67236e-16 	1.2923 	-0.000442319 	0
1.42344 	0.20001 	-1.65848e-16 	1.29408 	7.22778e-05 	0
1.42656 	0.20001 	-1.64461e-16 	1.29536 	0.000416999 	0
1.42969 	0.20001 	-1.64461e-16 	1.29678 	0.000721874 	0
1.43281 	0.20001 	-1.64461e-16 	1.29871 	0.000604422 	0
1.43594 	0.20001 	-1.64461e-16 	1.3019 	0.000178917 	0
1.43906 	0.20001 	-1.63073e-16 	1.30647 	-0.000435763 	0
1.44219 	0.20001 	-1.61685e-16 	1.3102 	-0.00111729 	0
1.44531 	0.20001 	-1.61685e-16 	1.31325 	-0.00119684 	0
1.44844 	0.20001 	-1.61685e-16 	1.31569 	-0.00102132 	0
1.45156 	0.20001 	-1.56828e-16 	1.31688 	-0.000341735 	0
1.45469 	0.20001 	-1.51971e-16 	1.31716 	0.00069039 	0
1.45781 	0.20001 	-1.51971e-16 	1.31785 	0.00146863 	0
1.46094 	0.20001 	-1.51971e-16 	1.31951 	0.00175362 	0
1.46406 	0.20001 	-1.50583e-16 	1.32303 	0.00173845 	0
1.46719 	0.20001 	-1.49195e-16 	1.32859 	0.0013958 	0
1.47031 	0.20001 	-1.49195e-16 	1.33439 	0.000513577 	0
1.47344 	0.20001 	-1.49195e-16 	1.33855 	-0.00106458 	0
1.47656 	0.20001 	-1.49195e-16 	1.34147 	-0.00216379 	0
1.47969 	0.20001 	-1.49195e-16 	1.34383 	-0.00244492 	0
1.48281 	0.20001 	-1.49195e-16 	1.34375 	-0.00197268 	0
1.48594 	0.20001 	-1.49195e-16 	1.3411 	-0.000393471 	0
1.48906 	0.20001 	-1.4746e-16 	1.33994 	0.00145985 	0
1.49219 	0.20001 	-1.45726e-16 	1.34061 	0.00228543 	0
1.49531 	0.20001 	-1.45726e-16 	1.34195 	0.00245129 	0
1.49844 	0.20001 	-1.45726e-16 	1.34534 	0.0022255 	0
1.50156 	0.20001 	-1.45726e-16 	1.35055 	0.00147348 	0
1.50469 	0.20001 	-1.45726e-16 	1.35464 	-0.000205747 	0
1.50781 	0.20001 	-1.47113e-16 	1.35688 	-0.00120083 	0
1.51094 	0.20001 	-1.48501e-16 	1.35816 	-0.00133062 	0
1.51406 	0.20001 	-1.48501e-16 	1.35677 	-0.000483037 	0
1.51719 	0.20001 	-1.48501e-16 	1.35605 	0.000839385 	0
1.52031 	0.20001 	-1.47113e-16 	1.35772 	0.00142719 	0
1.52344 	0.20001 	-1.45726e-16 	1.36029 	0.00146163 	0
1.52656 	0.20001 	-1.45726e-16 	1.36463 	0.00117636 	0
1.52969 	0.20001 	-1.45726e-16 	1.36993 	0.000503093 	0
1.53281 	0.20001 	-1.45726e-16 	1.37421 	-0.000739082 	0
1.53594 	0.20001 	-1.42256e-16 	1.37713 	-0.00136911 	0
1.53906 	0.20001 	-1.37399e-16 	1.37853 	-0.00117172 	0
1.54219 	0.20001 	-1.36011e-16 	1.37762 	-0.000101892 	0
1.54531 	0.20001 	-1.36011e-16 	1.377 	0.00116999 	0
1.54844 	0.20001 	-1.36011e-16 	1.37841 	0.00160119 	0
1.55156 	0.20001 	-1.36011e-16 	1.38121 	0.0015748 	0
1.55469 	0.20001 	-1.34623e-16 	1.38562 	0.00118333 	0
1.55781 	0.20001 	-1.29766e-16 	1.38933 	0.000499931 	0
1.56094 	0.20001 	-1.26297e-16 	1.3916 	4.2121e-05 	0
1.56406 	0.20001 	-1.24562e-16 	1.39314 	-6.05651e-05 	0
1.56719 	0.20001 	-1.19358e-16 	1.39328 	0.000176448 	0
1.57031 	0.20001 	-1.15888e-16 	1.39404 	0.000603906 	0
1.57344 	0.20001 	-1.14501e-16 	1.39574 	0.000730991 	0
1.57656 	0.20001 	-1.13113e-16 	1.39785 	0.000701049 	0
1.57969 	0.20001 	-1.13113e-16 	1.40115 	0.000421652 	0
1.58281 	0.20001 	-1.13113e-16 	1.40491 	-0.000387575 	0
1.58594 	0.20001 	-1.13113e-16 	1.40731 	-0.00102615 	0
1.58906 	0.20001 	-1.13113e-16 	1.40943 	-0.00119471 	0
1.59219 	0.20001 	-1.14501e-16 	1.41094 	-0.00105114 	0
1.59531 	0.20001 	-1.15888e-16 	1.41161 	-0.000621016 	0
1.59844 	0.20001 	-1.17276e-16 	1.41227 	7.58825e-05 	0
1.60156 	0.20001 	-1.15541e-16 	1.41295 	0.000841543 	0
1.60469 	0.20001 	-1.12419e-16 	1.41395 	0.0014151 	0
1.60781 	0.20001 	-1.11031e-16 	1.41547 	0.00167669 	0
1.61094 	0.20001 	-1.06174e-16 	1.41722 	0.00173624 	0
1.61406 	0.20001 	-1.02705e-16 	1.41897 	0.00177154 	0
1.61719 	0.20001 	-1.02705e-16 	1.42091 	0.00179643 	0
1.62031 	0.20001 	-1.02705e-16 	1.4232 	0.00178705 	0
1.62344 	0.20001 	-1.07562e-16 	1.42609 	0.0016704 	0
1.62656 	0.20001 	-1.12419e-16 	1.42942 	0.0013003 	0
1.62969 	0.20001 	-1.11031e-16 	1.43198 	0.000388459 	0
1.63281 	0.20001 	-1.11031e-16 	1.43367 	-0.000412773 	0
1.63594 	0.20001 	-1.12419e-16 	1.43519 	-0.000877215 	0
1.63906 	0.20001 	-1.12419e-16 	1.43519 	-0.00088964 	0
1.64219 	0.20001 	-1.12419e-16 	1.43397 	-0.000414821 	0
1.64531 	0.20001 	-1.11031e-16 	1.43422 	0.000350734 	0
1.64844 	0.20001 	-1.09643e-16 	1.43582 	0.000780807 	0
1.65156 	0.20001 	-1.06174e-16 	1.43766 	0.000883277 	0
1.65469 	0.20001 	-1.02705e-16 	1.44006 	0.000851395 	0
1.65781 	0.20001 	-1.02705e-16 	1.44353 	0.000730243 	0
1.66094 	0.20001 	-1.01317e-16 	1.44752 	0.000437147 	0
1.66406 	0.20001 	-9.9929e-17 	1.45038 	6.96669e-05 	0
1.66719 	0.20001 	-9.9929e-17 	1.45249 	4.474e-05 	0
1.67031 	0.20001 	-9.85412e-17 	1.45452 	0.000305268 	0
1.67344 	0.20001 	-9.85412e-17 	1.45618 	0.000728913 	0
1.67656 	0.20001 	-9.9929e-17 	1.45786 	0.00120668 	0
1.67969 	0.20001 	-1.03398e-16 	1.45988 	0.00156952 	0
1.68281 	0.20001 	-1.0548e-16 	1.46212 	0.0017544 	0
1.68594 	0.20001 	-1.04092e-16 	1.46437 	0.00183349 	0
1.68906 	0.20001 	-1.04092e-16 	1.46678 	0.00184597 	0
1.69219 	0.20001 	-1.04092e-16 	1.46935 	0.00176715 	0
1.69531 	0.20001 	-1.04092e-16 	1.47215 	0.0015372 	0
1.69844 	0.20001 	-1.04092e-16 	1.4749 	0.000769532 	0
1.70156 	0.20001 	-1.04092e-16 	1.47756 	-0.000656815 	0
1.70469 	0.20001 	-1.02705e-16 	1.47995 	-0.00215799 	0
1.70781 	0.20001 	-1.01317e-16 	1.48181 	-0.00317313 	0
1.71094 	0.20001 	-1.01317e-16 	1.48359 	-0.00355249 	0
1.71406 	0.20001 	-1.01317e-16 	1.48432 	-0.00357974 	0
1.71719 	0.20001 	-1.02705e-16 	1.48371 	-0.00306048 	0
1.72031 	0.20001 	-1.02705e-16 	1.48332 	-0.00206217 	0
1.72344 	0.20001 	-1.01317e-16 	1.48348 	-0.000726377 	0
1.72656 	0.20001 	-9.9929e-17 	1.48393 	0.000562274 	0
1.72969 	0.20001 	-9.9929e-17 	1.48502 	0.00134801 	0
1.73281 	0.20001 	-1.01317e-16 	1.4866 	0.00157661 	0
1.73594 	0.20001 	-1.01317e-16 	1.48845 	0.00166011 	0
1.73906 	0.20001 	-1.01317e-16 	1.49096 	0.00166923 	0
1.74219 	0.20001 	-1.03051e-16 	1.49428 	0.00148591 	0
1.74531 	0.20001 	-1.03398e-16 	1.49779 	0.000682793 	0
1.74844 	0.20001 	-1.00623e-16 	1.50118 	-0.000694424 	0
1.75156 	0.20001 	-9.92351e-17 	1.50399 	-0.00179335 	0
1.75469 	0.20001 	-1.00623e-16 	1.50664 	-0.00226537 	0
1.75781 	0.20001 	-1.0548e-16 	1.50872 	-0.0023898 	0
1.76094 	0.20001 	-1.0895e-16 	1.50941 	-0.00202236 	0
1.76406 	0.20001 	-1.0548e-16 	1.50992 	-0.00127451 	0
1.76719 	0.20001 	-1.02011e-16 	1.51081 	-0.000349631 	0
1.77031 	0.20001 	-1.00623e-16 	1.51187 	0.000464645 	0
1.77344 	0.20001 	-9.92351e-17 	1.51323 	0.000855895 	0
1.77656 	0.20001 	-9.78473e-17 	1.51489 	0.000871312 	0
1.77969 	0.20001 	-9.3337e-17 	1.51669 	0.000737893 	0
1.78281 	0.20001 	-8.67451e-17 	1.51872 	0.000191158 	0
1.78594 	0.20001 	-8.46634e-17 	1.52085 	-0.000810435 	0
1.78906 	0.20001 	-8.60512e-17 	1.52307 	-0.00142834 	0
1.79219 	0.20001 	-8.74389e-17 	1.52518 	-0.00156159 	0
1.79531 	0.20001 	-8.88267e-17 	1.52626 	-0.00109022 	0
1.79844 	0.20001 	-8.88267e-17 	1.52727 	-6.26123e-05 	0
1.80156 	0.20001 	-8.88267e-17 	1.52898 	0.00102146 	0
1.80469 	0.20001 	-8.74389e-17 	1.53122 	0.00168249 	0
1.80781 	0.20001 	-8.60512e-17 	1.53365 	0.00191414 	0
1.81094 	0.20001 	-8.60512e-17 	1.5365 	0.00198746 	0
1.81406 	0.20001 	-8.60512e-17 	1.53999 	0.00192542 	0
1.81719 	0.20001 	-8.46634e-17 	1.54386 	0.00172729 	0
1.82031 	0.20001 	-7.84184e-17 	1.54766 	0.00111195 	0
1.82344 	0.20001 	-7.49489e-17 	1.55118 	-0.000239464 	0
1.82656 	0.20001 	-7.77245e-17 	1.55377 	-0.00168109 	0
1.82969 	0.20001 	-8.05001e-17 	1.55577 	-0.00221674 	0
1.83281 	0.20001 	-8.18878e-17 	1.5566 	-0.00215176 	0
1.83594 	0.20001 	-8.32756e-17 	1.55479 	-0.00121274 	0
1.83906 	0.20001 	-8.46634e-17 	1.55337 	0.000373169 	0
1.84219 	0.20001 	-8.29287e-17 	1.55408 	0.00162382 	0
1.84531 	0.20001 	-8.11939e-17 	1.55599 	0.00196349 	0
1.84844 	0.20001 	-8.25817e-17 	1.55852 	0.00196347 	0
1.85156 	0.20001 	-8.25817e-17 	1.56238 	0.00175684 	0
1.85469 	0.20001 	-8.25817e-17 	1.56693 	0.00132137 	0
1.85781 	0.20001 	-8.39695e-17 	1.57066 	0.000302469 	0
1.86094 	0.20001 	-8.25817e-17 	1.57359 	-0.000945387 	0
1.86406 	0.20001 	-7.98062e-17 	1.57638 	-0.00146826 	0
1.86719 	0.20001 	-7.49489e-17 	1.57853 	-0.00144972 	0
1.87031 	0.20001 	-7.14795e-17 	1.57838 	-0.000680171 	0
1.87344 	0.20001 	-7.14795e-17 	1.5783 	0.000539811 	0
1.87656 	0.20001 	-7.00917e-17 	1.58001 	0.00147028 	0
1.87969 	0.20001 	-6.87039e-17 	1.5825 	0.00174901 	0
1.88281 	0.20001 	-7.00917e-17 	1.58546 	0.00183687 	0
1.88594 	0.20001 	-7.14795e-17 	1.58928 	0.00182946 	0
1.88906 	0.20001 	-6.97448e-17 	1.5933 	0.00171594 	0
1.89219 	0.20001 	-6.93978e-17 	1.59658 	0.00136732 	0
1.89531 	0.20001 	-7.21734e-17 	1.59892 	0.00056778 	0
1.89844 	0.20001 	-7.35612e-17 	1.60095 	-0.000614946 	0
1.90156 	0.20001 	-7.49489e-17 	1.60278 	-0.00161388 	0
1.90469 	0.20001 	-7.77245e-17 	1.60351 	-0.00199144 	0
1.90781 	0.20001 	-7.4255e-17 	1.6014 	-0.00147154 	0
1.91094 	0.20001 	-6.93978e-17 	1.59785 	-0.000255719 	0
1.91406 	0.20001 	-7.07856e-17 	1.59632 	0.00122791 	0
1.91719 	0.20001 	-7.07856e-17 	1.59686 	0.00206831 	0
1.92031 	0.20001 	-6.93978e-17 	1.59821 	0.00230806 	0
1.92344 	0.20001 	-7.07856e-17 	1.59986 	0.00239022 	0
1.92656 	0.20001 	-7.21734e-17 	1.60252 	0.00242802 	0
1.92969 	0.20001 	-7.07856e-17 	1.60636 	0.00238079 	0
1.93281 	0.20001 	-6.801e-17 	1.61061 	0.00217381 	0
1.93594 	0.20001 	-6.31528e-17 	1.61461 	0.00151213 	0
1.93906 	0.20001 	-5.96834e-17 	1.61796 	0.000261073 	0
1.94219 	0.20001 	-5.79486e-17 	1.62028 	-0.000770215 	0
1.94531 	0.20001 	-5.27445e-17 	1.62237 	-0.00104956 	0
1.94844 	0.20001 	-4.75403e-17 	1.62325 	-0.000837929 	0
1.95156 	0.20001 	-4.58056e-17 	1.62264 	-0.000172149 	0
1.95469 	0.20001 	-4.71934e-17 	1.62307 	0.000596014 	0
1.95781 	0.20001 	-4.85811e-17 	1.62483 	0.000852102 	0
1.96094 	0.20001 	-4.51117e-17 	1.627 	0.000830495 	0
1.96406 	0.20001 	-4.303e-17 	1.62971 	0.000695504 	0
1.96719 	0.20001 	-4.44178e-17 	1.63256 	0.000247523 	0
1.97031 	0.20001 	-4.44178e-17 	1.63487 	-0.00052258 	0
1.97344 	0.20001 	-4.303e-17 	1.63703 	-0.000993809 	0
1.97656 	0.20001 	-4.16422e-17 	1.63876 	-0.00114883 	0
1.97969 	0.20001 	-4.02545e-17 	1.63918 	-0.000728692 	0
1.98281 	0.20001 	-3.88667e-17 	1.63954 	0.000286866 	0
1.98594 	0.20001 	-3.88667e-17 	1.64115 	0.00131156 	0
1.98906 	0.20001 	-3.88667e-17 	1.64339 	0.00178622 	0
1.99219 	0.20001 	-3.53972e-17 	1.64621 	0.00206007 	0
1.99531 	0.20001 	-3.054e-17 	1.65038 	0.00201636 	0
1.99844 	0.20001 	-3.054e-17 	1.65524 	0.00176787 	0
2.00156 	0.20001 	-3.33156e-17 	1.6589 	0.00146564 	0
2.00469 	0.20001 	-3.47034e-17 	1.66159 	0.00106781 	0
2.00781 	0.20001 	-3.15808e-17 	1.66386 	0.000609122 	0
2.01094 	0.20001 	-2.70706e-17 	1.66584 	0.000268768 	0
2.01406 	0.20001 	-2.70706e-17 	1.66674 	0.000184071 	0
2.01719 	0.20001 	-2.70706e-17 	1.66569 	0.000658268 	0
2.02031 	0.20001 	-2.22133e-17 	1.66489 	0.00125929 	0
2.02344 	0.20001 	-1.8397e-17 	1.66571 	0.00165555 	0
2.02656 	0.20001 	-1.94378e-17 	1.66743 	0.00182803 	0
2.02969 	0.20001 	-2.08256e-17 	1.66944 	0.00191747 	0
2.03281 	0.20001 	-2.08256e-17 	1.67178 	0.00202758 	0
2.03594 	0.20001 	-2.08256e-17 	1.67472 	0.00209652 	0
2.03906 	0.20001 	-2.08256e-17 	1.67834 	0.00208581 	0
2.04219 	0.20001 	-1.94378e-17 	1.68227 	0.00196678 	0
2.04531 	0.20001 	-1.94378e-17 	1.68614 	0.00163883 	0
2.04844 	0.20001 	-1.94378e-17 	1.68974 	0.000812864 	0
2.05156 	0.20001 	-1.59683e-17 	1.69305 	-0.000733269 	0
2.05469 	0.20001 	-1.38867e-17 	1.6961 	-0.00248137 	0
2.05781 	0.20001 	-1.38867e-17 	1.69893 	-0.00359511 	0
2.06094 	0.20001 	-1.24989e-17 	1.70084 	-0.0042801 	0
2.06406 	0.20001 	-1.24989e-17 	1.69995 	-0.00452205 	0
2.06719 	0.20001 	-1.04172e-17 	1.69579 	-0.00377825 	0
2.07031 	0.20001 	-6.94778e-18 	1.69161 	-0.00242648 	0
2.07344 	0.20001 	-6.94778e-18 	1.69026 	-0.000645115 	0
2.07656 	0.20001 	-6.94778e-18 	1.69079 	0.000673393 	0
2.07969 	0.20001 	-5.21305e-18 	1.6923 	0.00137999 	0
2.08281 	0.20001 	1.3789e-18 	1.69422 	0.00177072 	0
2.08594 	0.20001 	6.23612e-18 	1.69622 	0.00202731 	0
2.08906 	0.20001 	7.6239e-18 	1.6982 	0.00220324 	0
2.09219 	0.20001 	9.01168e-18 	1.70024 	0.0023115 	0
2.09531 	0.20001 	9.35862e-18 	1.70245 	0.00237511 	0
2.09844 	0.20001 	1.3175e-17 	1.70477 	0.00241262 	0
2.10156 	0.20001 	1.66445e-17 	1.70714 	0.0024127 	0
2.10469 	0.20001 	1.52567e-17 	1.70955 	0.00234668 	0
2.10781 	0.20001 	1.56036e-17 	1.71175 	0.00218842 	0
2.11094 	0.20001 	1.87261e-17 	1.71348 	0.00192389 	0
2.11406 	0.20001 	2.01139e-17 	1.71489 	0.00149727 	0
2.11719 	0.20001 	2.01139e-17 	1.71617 	0.00078053 	0
2.12031 	0.20001 	2.15017e-17 	1.71754 	-0.000402133 	0
2.12344 	0.20001 	2.28895e-17 	1.71898 	-0.00159524 	0
2.12656 	0.20001 	2.11547e-17 	1.72036 	-0.00224457 	0
2.12969 	0.20001 	1.942e-17 	1.72112 	-0.00227009 	0
2.13281 	0.20001 	2.08078e-17 	1.72084 	-0.00170029 	0
2.13594 	0.20001 	2.08078e-17 	1.72072 	-0.000628166 	0
2.13906 	0.20001 	1.9767e-17 	1.72137 	0.000754685 	0
2.14219 	0.20001 	2.01139e-17 	1.72281 	0.00181641 	0
2.14531 	0.20001 	2.01139e-17 	1.72473 	0.00222632 	0
2.14844 	0.20001 	2.04609e-17 	1.72704 	0.00237309 	0
2.15156 	0.20001 	2.08078e-17 	1.73049 	0.00231046 	0
2.15469 	0.20001 	2.08078e-17 	1.7345 	0.00216475 	0
2.15781 	0.20001 	2.08078e-17 	1.73796 	0.00194411 	0
2.16094 	0.20001 	2.08078e-17 	1.7406 	0.00163756 	0
2.16406 	0.20001 	2.08078e-17 	1.74271 	0.00133035 	0
2.16719 	0.20001 	2.08078e-17 	1.74461 	0.00114946 	0
2.17031 	0.20001 	2.08078e-17 	1.74628 	0.000913089 	0
2.17344 	0.20001 	2.08078e-17 	1.74731 	0.000634546 	0
2.17656 	0.20001 	2.08078e-17 	1.7478 	0.000339382 	0
2.17969 	0.20001 	2.08078e-17 	1.74893 	-0.000158257 	0
2.18281 	0.20001 	2.08078e-17 	1.75103 	-0.000609157 	0
2.18594 	0.20001 	2.08078e-17 	1.7534 	-0.00111857 	0
2.18906 	0.20001 	2.08078e-17 	1.75603 	-0.00173887 	0
2.19219 	0.20001 	2.08078e-17 	1.75879 	-0.00223635 	0
2.19531 	0.20001 	2.08078e-17 	1.76148 	-0.00249184 	0
2.19844 	0.20001 	2.08078e-17 	1.76345 	-0.0024877 	0
2.20156 	0.20001 	2.08078e-17 	1.76454 	-0.00197781 	0
2.20469 	0.20001 	2.08078e-17 	1.76541 	-0.00102011 	0
2.20781 	0.20001 	2.08078e-17 	1.76601 	0.000349389 	0
2.21094 	0.20001 	2.08078e-17 	1.76639 	0.00173276 	0
2.21406 	0.20001 	2.08078e-17 	1.76705 	0.00271625 	0
2.21719 	0.20001 	2.08078e-17 	1.76833 	0.00320303 	0
2.22031 	0.20001 	2.08078e-17 	1.77019 	0.00342617 	0
2.22344 	0.20001 	2.08078e-17 	1.77212 	0.00363424 	0
2.22656 	0.20001 	2.08078e-17 	1.77457 	0.0038464 	0
2.22969 	0.20001 	2.08078e-17 	1.77772 	0.00398675 	0
2.23281 	0.20001 	2.08078e-17 	1.78091 	0.00403616 	0
2.23594 	0.20001 	2.08078e-17 	1.78415 	0.00396212 	0
2.23906 	0.20001 	1.90731e-17 	1.78757 	0.00352471 	0
2.24219 	0.20001 	1.73384e-17 	1.79118 	0.00224862 	0
2.24531 	0.20001 	1.73384e-17 	1.79491 	-0.000228514 	0
2.24844 	0.20001 	1.73384e-17 	1.79816 	-0.00309919 	0
2.25156 	0.20001 	1.73384e-17 	1.80003 	-0.00487033 	0
2.25469 	0.20001 	1.73384e-17 	1.80128 	-0.00610366 	0
2.25781 	0.20001 	1.73384e-17 	1.79972 	-0.00661303 	0
2.26094 	0.20001 	1.73384e-17 	1.79342 	-0.00553417 	0
2.26406 	0.20001 	1.73384e-17 	1.78575 	-0.0028563 	0
2.26719 	0.20001 	1.73384e-17 	1.78115 	0.000997477 	0
2.27031 	0.20001 	1.73384e-17 	1.77964 	0.00426393 	0
2.27344 	0.20001 	1.73384e-17 	1.78033 	0.00610493 	0
2.27656 	0.20001 	1.73384e-17 	1.78167 	0.00691209 	0
2.27969 	0.20001 	1.73384e-17 	1.78449 	0.00754015 	0
2.28281 	0.20001 	1.73384e-17 	1.78996 	0.00780585 	0
2.28594 	0.20001 	1.87261e-17 	1.79804 	0.00788775 	0
2.28906 	0.20001 	2.01139e-17 	1.80743 	0.00767711 	0