0.0015625 	0.99999 	-1.03195e-18 	1 	1
0.0046875 	0.99999 	8.88178e-21 	1 	1
0.0078125 	0.99999 	1.39666e-18 	1 	1
0.0109375 	0.99999 	8.88178e-21 	1 	1
0.0140625 	0.99999 	-2.76668e-18 	1 	1
0.0171875 	0.99999 	-5.54223e-18 	1 	1
0.0203125 	0.99999 	-6.58307e-18 	1 	1
0.0234375 	0.99999 	-4.84834e-18 	1 	1
0.0265625 	0.99999 	-2.07279e-18 	1 	1
0.0296875 	0.99999 	-2.41973e-18 	1 	1
0.0328125 	0.99999 	-2.76668e-18 	1 	1
0.0359375 	0.99999 	-1.03195e-18 	1 	1
0.0390625 	0.99999 	-6.85008e-19 	1 	1
0.0421875 	0.99999 	-2.41973e-18 	1 	1
0.0453125 	0.99999 	-4.15445e-18 	1 	1
0.0484375 	0.99999 	-4.15445e-18 	1 	1
0.0515625 	0.99999 	-2.41973e-18 	1 	1
0.0546875 	0.99999 	-3.80751e-18 	1 	1
0.0578125 	0.99999 	-6.58307e-18 	1 	1
0.0609375 	0.99999 	-6.23612e-18 	1 	1
0.0640625 	0.99999 	-7.6239e-18 	1 	1
0.0671875 	0.99999 	-7.6239e-18 	1 	1
0.0703125 	0.99999 	-4.84834e-18 	1 	1
0.0734375 	0.99999 	-5.19529e-18 	1 	1
0.0765625 	0.99999 	-5.54223e-18 	1 	1
0.0796875 	0.99999 	-2.76668e-18 	1 	1
0.0828125 	0.99999 	8.88178e-21 	1 	1
0.0859375 	0.99999 	3.13138e-18 	1 	1
0.0890625 	0.99999 	3.47833e-18 	1 	1
0.0921875 	0.99999 	3.47833e-18 	1 	1
0.0953125 	0.99999 	6.25389e-18 	1 	1
0.0984375 	0.99999 	6.25389e-18 	1 	1
0.101562 	0.99999 	4.51916e-18 	1 	1
0.104687 	0.99999 	5.90694e-18 	1 	1
0.107812 	0.99999 	7.29472e-18 	1 	1
0.110937 	0.99999 	8.33555e-18 	1 	1
0.114062 	0.99999 	1.14581e-17 	1 	1
0.117187 	0.99999 	1.31928e-17 	1 	1
0.120312 	0.99999 	8.33555e-18 	1 	1
0.123437 	0.99999 	5.21305e-18 	1 	1
0.126562 	0.99999 	8.6825e-18 	1 	1
0.129687 	0.99999 	1.04172e-17 	1 	1
0.132812 	0.99999 	6.94778e-18 	1 	1
0.135937 	0.99999 	2.09055e-18 	1 	1
0.139062 	0.99999 	7.02771e-19 	1 	1
0.142187 	0.99999 	-2.41973e-18 	1 	1
0.145312 	0.99999 	-6.93001e-18 	1 	1
0.148437 	0.99999 	-1.00525e-17 	1 	1
0.151562 	0.99999 	-1.14403e-17 	1 	1
0.154687 	0.99999 	-7.97085e-18 	1 	1
0.157812 	0.99999 	-3.46057e-18 	1 	1
0.160937 	0.99999 	-6.85008e-19 	1 	1
0.164062 	0.99999 	7.02771e-19 	1 	1
0.167187 	0.99999 	2.43749e-18 	1 	1
0.170312 	0.99999 	5.56e-18 	1 	1
0.173437 	0.99999 	5.21305e-18 	1 	1
0.176562 	0.99999 	3.47833e-18 	1 	1
0.179687 	0.99999 	4.86611e-18 	1 	1
0.182812 	0.99999 	4.86611e-18 	1 	1
0.185937 	0.99999 	4.86611e-18 	1 	1
0.189062 	0.99999 	7.64167e-18 	1 	1
0.192187 	0.99999 	1.07642e-17 	1 	1
0.195312 	0.99999 	1.38867e-17 	1 	1
0.198437 	0.99999 	1.8397e-17 	1 	1
0.201562 	0.99999 	2.29072e-17 	1 	1
0.204687 	0.99999 	2.4295e-17 	1 	1
0.207812 	0.99999 	2.4295e-17 	1 	1
0.210937 	0.99999 	2.56828e-17 	1 	1
0.214062 	0.99999 	2.56828e-17 	1 	1
0.217187 	0.99999 	2.29072e-17 	1 	1
0.220312 	0.99999 	2.32542e-17 	1 	1
0.223437 	0.99999 	2.49889e-17 	1 	1
0.226562 	0.99999 	2.84583e-17 	1 	1
0.229687 	0.99999 	3.054e-17 	1 	1
0.232812 	0.99999 	2.77645e-17 	1 	1
0.235937 	0.99999 	2.63767e-17 	1 	1
0.239062 	0.99999 	2.77645e-17 	1 	1
0.242187 	0.99999 	3.054e-17 	1 	1
0.245312 	0.99999 	2.84583e-17 	1 	1
0.248437 	0.99999 	2.49889e-17 	1 	1
0.251562 	0.99999 	2.49889e-17 	1 	1
0.254687 	0.99999 	2.49889e-17 	1 	1
0.257812 	0.99999 	2.36011e-17 	1 	1
0.260937 	0.99999 	2.22133e-17 	1 	1
0.264062 	0.99999 	2.36011e-17 	1 	1
0.267187 	0.99999 	2.63767e-17 	1 	1
0.270312 	0.99999 	2.91522e-17 	1 	1
0.273437 	0.99999 	3.054e-17 	1 	1
0.276562 	0.99999 	3.054e-17 	1 	1
0.279687 	0.99999 	3.054e-17 	1 	1
0.282812 	0.99999 	2.88053e-17 	1 	1
0.285937 	0.99999 	2.70706e-17 	1 	1
0.289062 	0.99999 	2.56828e-17 	1 	1
0.292187 	0.99999 	2.56828e-17 	1 	1
0.295312 	0.99999 	2.84583e-17 	1 	1
0.298437 	0.99999 	2.94992e-17 	1 	1
0.301562 	0.99999 	2.94992e-17 	1 	1
0.304687 	0.99999 	3.01931e-17 	1 	1
0.307812 	0.99999 	2.91522e-17 	1 	1
0.310937 	0.99999 	2.91522e-17 	1 	1
0.314062 	0.99999 	2.88053e-17 	1 	1
0.317187 	0.99999 	2.56828e-17 	1 	1
0.320312 	0.99999 	2.29072e-17 	1 	1
0.323437 	0.99999 	1.97847e-17 	1 	1
0.326562 	0.99999 	1.63153e-17 	1 	1
0.329687 	0.99999 	1.59683e-17 	1 	1
0.332812 	0.99999 	1.56214e-17 	1 	1
0.335937 	0.99999 	1.21519e-17 	1 	1
0.339062 	0.99999 	1.04172e-17 	1 	1
0.342187 	0.99999 	9.02944e-18 	1 	1
0.345312 	0.99999 	7.64167e-18 	1 	1
0.348437 	0.99999 	7.64167e-18 	1 	1
0.351562 	0.99999 	9.02944e-18 	1 	1
0.354687 	0.99999 	1.04172e-17 	1 	1
0.357812 	0.99999 	1.04172e-17 	1 	1
0.360937 	0.99999 	1.04172e-17 	1 	1
0.364062 	0.99999 	1.04172e-17 	1 	1
0.367187 	0.99999 	9.02944e-18 	1 	1
0.370312 	0.99999 	9.02944e-18 	1 	1
0.373437 	0.99999 	1.00703e-17 	1 	1
0.376562 	0.99999 	1.11111e-17 	1 	1
0.379687 	0.99999 	1.24989e-17 	1 	1
0.382812 	0.99999 	1.07642e-17 	1 	1
0.385937 	0.99999 	8.6825e-18 	1 	1
0.389062 	0.99999 	8.33555e-18 	1 	1
0.392187 	0.99999 	9.72333e-18 	1 	1
0.395312 	0.99999 	1.24989e-17 	1 	1
0.398437 	0.99999 	1.38867e-17 	1 	1
0.401562 	0.99999 	1.07642e-17 	1 	1
0.404687 	0.99999 	1.07642e-17 	1 	1
0.407812 	0.99999 	1.21519e-17 	1 	1
0.410937 	0.99999 	1.1805e-17 	1 	1
0.414062 	0.99999 	1.1805e-17 	1 	1
0.417187 	0.99999 	1.04172e-17 	1 	1
0.420312 	0.99999 	1.04172e-17 	1 	1
0.423437 	0.99999 	8.6825e-18 	1 	1
0.426562 	0.99999 	8.6825e-18 	1 	1
0.429687 	0.99999 	8.6825e-18 	1 	1
0.432812 	0.99999 	6.60083e-18 	1 	1
0.435937 	0.99999 	4.51916e-18 	1 	1
0.439062 	0.99999 	5.90694e-18 	1 	1
0.442187 	0.99999 	9.02944e-18 	1 	1
0.445312 	0.99999 	9.02944e-18 	1 	1
0.448437 	0.99999 	7.29472e-18 	1 	1
0.451562 	0.99999 	4.17222e-18 	1 	1
0.454687 	0.99999 	4.51916e-18 	1 	1
0.457812 	0.99999 	4.51916e-18 	1 	1
0.460937 	0.99999 	1.39666e-18 	1 	1
0.464062 	0.99999 	1.74361e-18 	1 	1
0.467187 	0.99999 	4.86611e-18 	1 	1
0.470312 	0.99999 	6.25389e-18 	1 	1
0.473437 	0.99999 	7.64167e-18 	1 	1
0.476562 	0.99999 	1.07642e-17 	1 	1
0.479687 	0.99999 	1.24989e-17 	1 	1
0.482812 	0.99999 	1.56214e-17 	1 	1
0.485937 	0.99999 	1.87439e-17 	1 	1
0.489062 	0.99999 	2.01317e-17 	1 	1
0.492187 	0.99999 	2.15195e-17 	1 	1
0.495312 	0.99999 	2.15195e-17 	1 	1
0.498437 	0.99999 	2.15195e-17 	1 	1
0.501562 	0.99999 	2.01317e-17 	1 	1
0.504687 	0.99999 	2.04786e-17 	1 	1
0.507812 	0.99999 	2.36011e-17 	1 	1
0.510937 	0.99999 	2.49889e-17 	1 	1
0.514062 	0.99999 	2.63767e-17 	1 	1
0.517187 	0.99999 	2.77645e-17 	1 	1
0.520312 	0.99999 	2.77645e-17 	1 	1
0.523437 	0.99999 	2.77645e-17 	1 	1
0.526562 	0.99999 	2.77645e-17 	1 	1
0.529687 	0.99999 	2.94992e-17 	1 	1
0.532812 	0.99999 	3.12339e-17 	1 	1
0.535937 	0.99999 	3.26217e-17 	1 	1
0.539062 	0.99999 	3.36625e-17 	1 	1
0.542187 	0.99999 	3.47034e-17 	1 	1
0.545312 	0.99999 	3.60911e-17 	1 	1
0.548437 	0.99999 	3.29686e-17 	1 	1
0.551562 	0.99999 	3.15808e-17 	1 	1
0.554687 	0.99999 	3.01931e-17 	1 	1
0.557812 	0.99999 	2.70706e-17 	1 	1
0.560937 	0.99999 	2.74175e-17 	1 	1
0.564062 	0.99999 	2.63767e-17 	1 	1
0.567187 	0.99999 	2.49889e-17 	1 	1
0.570312 	0.99999 	2.18664e-17 	1 	1
0.573437 	0.99999 	2.01317e-17 	1 	1
0.576562 	0.99999 	2.29072e-17 	1 	1
0.579687 	0.99999 	2.74175e-17 	1 	1
0.582812 	0.99999 	3.054e-17 	1 	1
0.585937 	0.99999 	3.01931e-17 	1 	1
0.589062 	0.99999 	2.84583e-17 	2.61895 	1.64832
0.592187 	0.99999 	2.70706e-17 	9.54431 	2.66775
0.595312 	0.99999 	2.88053e-17 	10.8573 	2.74922
0.598437 	0.99999 	3.054e-17 	10.7563 	2.73662
0.601562 	0.99999 	2.91522e-17 	10.7036 	2.72583
0.604687 	0.99999 	2.77645e-17 	10.6534 	2.71679
0.607812 	0.99999 	2.63767e-17 	10.6051 	2.70875
0.610937 	0.99999 	2.36011e-17 	10.5609 	2.7012
0.614062 	0.99999 	2.22133e-17 	10.5281 	2.69503
0.617187 	0.99999 	2.04786e-17 	10.4921 	2.69091
0.620312 	0.99999 	2.04786e-17 	10.4595 	2.69098
0.623437 	0.99999 	2.22133e-17 	10.4304 	2.6937
0.626562 	0.99999 	2.22133e-17 	10.3958 	2.6995
0.629687 	0.99999 	2.22133e-17 	10.3495 	2.70732
0.632812 	0.99999 	2.39481e-17 	10.2798 	2.71356
0.635937 	0.99999 	2.70706e-17 	10.2066 	2.71633
0.639062 	0.99999 	2.70706e-17 	10.1745 	2.7179
0.642187 	0.99999 	2.56828e-17 	10.1518 	2.71723
0.645312 	0.99999 	2.74175e-17 	10.1388 	2.71588
0.648437 	0.99999 	3.22747e-17 	10.1356 	2.71417
0.651562 	0.99999 	3.53972e-17 	10.1376 	2.71113
0.654687 	0.99999 	3.53972e-17 	10.141 	2.70628
0.657812 	0.99999 	3.53972e-17 	10.1419 	2.69988
0.660937 	0.99999 	3.53972e-17 	10.1391 	2.69248
0.664062 	0.99999 	3.40095e-17 	10.1329 	2.6848
0.667187 	0.99999 	3.26217e-17 	10.1213 	2.67737
0.670312 	0.99999 	3.26217e-17 	10.1039 	2.6706
0.673437 	0.99999 	3.12339e-17 	10.0801 	2.66489
0.676562 	0.99999 	2.98461e-17 	10.0582 	2.66179
0.679687 	0.99999 	2.98461e-17 	10.0361 	2.66115
0.682812 	0.99999 	3.15808e-17 	10.0115 	2.66159
0.685937 	0.99999 	3.33156e-17 	9.98643 	2.66331
0.689062 	0.99999 	3.33156e-17 	9.96149 	2.66708
0.692187 	0.99999 	3.33156e-17 	9.93729 	2.67317
0.695312 	0.99999 	3.33156e-17 	9.91209 	2.68047
0.698437 	0.99999 	3.50503e-17 	9.8933 	2.68726
0.701562 	0.99999 	3.6785e-17 	9.8784 	2.69133
0.704687 	0.99999 	3.99075e-17 	9.85746 	2.69227
0.707812 	0.99999 	4.303e-17 	9.83171 	2.69187
0.710937 	0.99999 	4.12953e-17 	9.80356 	2.69001
0.714062 	0.99999 	3.78259e-17 	9.77392 	2.68619
0.717187 	0.99999 	3.47034e-17 	9.7443 	2.6806
0.720312 	0.99999 	3.33156e-17 	9.71582 	2.67374
0.723437 	0.99999 	3.33156e-17 	9.69091 	2.66636
0.726562 	0.99999 	3.33156e-17 	9.66907 	2.65856
0.729687 	0.99999 	3.50503e-17 	9.65026 	2.65072
0.732812 	0.99999 	3.6785e-17 	9.6328 	2.6432
0.735937 	0.99999 	3.6785e-17 	9.61392 	2.63624
0.739062 	0.99999 	3.6785e-17 	9.59389 	2.63033
0.742187 	0.99999 	3.85197e-17 	9.57508 	2.62619
0.745312 	0.99999 	4.02545e-17 	9.54983 	2.62439
0.748437 	0.99999 	4.02545e-17 	9.52191 	2.62447
0.751562 	0.99999 	4.02545e-17 	9.49401 	2.62518
0.754687 	0.99999 	3.85197e-17 	9.46565 	2.62702
0.757812 	0.99999 	3.6785e-17 	9.43834 	2.6306
0.760937 	0.99999 	3.85197e-17 	9.41287 	2.6358
0.764062 	0.99999 	3.88667e-17 	9.38854 	2.64153
0.767187 	0.99999 	3.57442e-17 	9.37203 	2.6466
0.770312 	0.99999 	3.22747e-17 	9.35113 	2.64891
0.773437 	0.99999 	3.054e-17 	9.32183 	2.64907
0.776562 	0.99999 	3.22747e-17 	9.29022 	2.64841
0.779687 	0.99999 	3.57442e-17 	9.25652 	2.64642
0.782812 	0.99999 	3.7132e-17 	9.22237 	2.64299
0.785937 	0.99999 	3.64381e-17 	9.18946 	2.63814
0.789062 	0.99999 	3.60911e-17 	9.15899 	2.63205
0.792187 	0.99999 	3.60911e-17 	9.13158 	2.62519
0.795312 	0.99999 	3.60911e-17 	9.10731 	2.61811
0.798437 	0.99999 	3.60911e-17 	9.08403 	2.61082
0.801562 	0.99999 	3.60911e-17 	9.0605 	2.60339
0.804687 	0.99999 	3.60911e-17 	9.03056 	2.59546
0.807812 	0.99999 	3.47034e-17 	8.99432 	2.58759
0.810937 	0.99999 	3.50503e-17 	8.96439 	2.58126
0.814062 	0.99999 	3.53972e-17 	8.92828 	2.57593
0.817187 	0.99999 	3.40095e-17 	8.89086 	2.57304
0.820312 	0.99999 	3.53972e-17 	8.85364 	2.57213
0.823437 	0.99999 	3.6785e-17 	8.81731 	2.57214
0.826562 	0.99999 	3.50503e-17 	8.78237 	2.57268
0.829687 	0.99999 	3.33156e-17 	8.75028 	2.57449
0.832812 	0.99999 	3.36625e-17 	8.72079 	2.57777
0.835937 	0.99999 	3.40095e-17 	8.69235 	2.58188
0.839062 	0.99999 	3.57442e-17 	8.66638 	2.58572
0.842187 	0.99999 	3.60911e-17 	8.64055 	2.58778
0.845312 	0.99999 	3.47034e-17 	8.61094 	2.588
0.848437 	0.99999 	3.47034e-17 	8.58269 	2.5878
0.851562 	0.99999 	3.47034e-17 	8.55414 	2.58687
0.854687 	0.99999 	3.47034e-17 	8.5258 	2.58507
0.857812 	0.99999 	3.47034e-17 	8.49778 	2.58229
0.860937 	0.99999 	3.60911e-17 	8.46989 	2.57838
0.864062 	0.99999 	3.88667e-17 	8.44038 	2.57323
0.867187 	0.99999 	4.02545e-17 	8.40867 	2.56694
0.870312 	0.99999 	4.02545e-17 	8.37607 	2.55987
0.873437 	0.99999 	3.85197e-17 	8.34465 	2.55248
0.876562 	0.99999 	3.6785e-17 	8.31509 	2.54501
0.879687 	0.99999 	3.50503e-17 	8.28467 	2.53737
0.882812 	0.99999 	3.47034e-17 	8.25354 	2.5298
0.885937 	0.99999 	3.74789e-17 	8.22541 	2.52303
0.889062 	0.99999 	3.88667e-17 	8.20302 	2.51781
0.892187 	0.99999 	3.88667e-17 	8.18821 	2.51474
0.895312 	0.99999 	3.7132e-17 	8.16956 	2.51315
0.898437 	0.99999 	3.53972e-17 	8.14402 	2.51322
0.901562 	0.99999 	3.6785e-17 	8.11839 	2.51395
0.904687 	0.99999 	3.81728e-17 	8.09212 	2.51508
0.907812 	0.99999 	3.81728e-17 	8.06346 	2.51652
0.910937 	0.99999 	3.81728e-17 	8.03124 	2.51826
0.914062 	0.99999 	3.99075e-17 	7.99608 	2.52022
0.917187 	0.99999 	4.16422e-17 	7.95615 	2.52147
0.920312 	0.99999 	4.16422e-17 	7.9074 	2.52124
0.923437 	0.99999 	4.16422e-17 	7.85592 	2.51984
0.926562 	0.99999 	3.99075e-17 	7.81246 	2.51817
0.929687 	0.99999 	3.81728e-17 	7.77903 	2.5168
0.932812 	0.99999 	4.12953e-17 	7.74906 	2.51523
0.935937 	0.99999 	4.44178e-17 	7.72361 	2.51342
0.939062 	0.99999 	4.44178e-17 	7.70392 	2.51128
0.942187 	0.99999 	4.26831e-17 	7.68689 	2.50848
0.945312 	0.99999 	3.95606e-17 	7.66842 	2.50471
0.948437 	0.99999 	3.81728e-17 	7.64705 	2.49991
0.951562 	0.99999 	3.81728e-17 	7.62489 	2.49436
0.954687 	0.99999 	3.81728e-17 	7.60266 	2.48829
0.957812 	0.99999 	3.95606e-17 	7.5794 	2.48176
0.960937 	0.99999 	4.23361e-17 	7.55499 	2.47489
0.964062 	0.99999 	4.19892e-17 	7.53027 	2.46799
0.967187 	0.99999 	4.3377e-17 	7.50725 	2.46151
0.970312 	0.99999 	4.64995e-17 	7.4741 	2.45459
0.973437 	0.99999 	4.78872e-17 	7.42839 	2.44765
0.976562 	0.99999 	4.9275e-17 	7.37772 	2.44196
0.979687 	0.99999 	4.75403e-17 	7.32788 	2.43823
0.982812 	0.99999 	4.58056e-17 	7.28844 	2.43678
0.985937 	0.99999 	4.58056e-17 	7.25798 	2.43664
0.989062 	0.99999 	4.58056e-17 	7.23388 	2.43745
0.992187 	0.99999 	4.58056e-17 	7.21651 	2.43949
0.995312 	0.99999 	4.58056e-17 	7.20863 	2.44278
0.998437 	0.99999 	4.58056e-17 	7.20457 	2.44646
1.00156 	0.99999 	4.61525e-17 	7.19139 	2.44901
1.00469 	0.99999 	4.64995e-17 	7.16948 	2.45039
1.00781 	0.99999 	4.47647e-17 	7.14114 	2.45074
1.01094 	0.99999 	4.303e-17 	7.10537 	2.45003
1.01406 	0.99999 	4.303e-17 	7.06088 	2.44768
1.01719 	0.99999 	4.19892e-17 	7.0066 	2.44371
1.02031 	0.99999 	4.09484e-17 	6.95129 	2.43912
1.02344 	0.99999 	4.09484e-17 	6.90728 	2.43499
1.02656 	0.99999 	4.09484e-17 	6.87291 	2.43121
1.02969 	0.99999 	4.23361e-17 	6.84059 	2.42696
1.03281 	0.99999 	4.40709e-17 	6.81102 	2.42227
1.03594 	0.99999 	4.75403e-17 	6.78436 	2.41722
1.03906 	0.99999 	5.06628e-17 	6.75812 	2.4116
1.04219 	0.99999 	5.06628e-17 	6.73036 	2.40528
1.04531 	0.99999 	5.06628e-17 	6.7036 	2.39858
1.04844 	0.99999 	4.9275e-17 	6.68218 	2.39212
1.05156 	0.99999 	4.78872e-17 	6.67077 	2.38679
1.05469 	0.99999 	4.64995e-17 	6.66736 	2.38237
1.05781 	0.99999 	4.37239e-17 	6.66021 	2.37794
1.06094 	0.99999 	4.40709e-17 	6.6317 	2.37192
1.06406 	0.99999 	4.58056e-17 	6.59521 	2.3666
1.06719 	0.99999 	4.58056e-17 	6.55334 	2.3621
1.07031 	0.99999 	4.58056e-17 	6.49354 	2.35709
1.07344 	0.99999 	4.40709e-17 	6.41629 	2.35131
1.07656 	0.99999 	4.23361e-17 	6.35422 	2.34767
1.07969 	0.99999 	4.303e-17 	6.31884 	2.34701
1.08281 	0.99999 	4.37239e-17 	6.29724 	2.34778
1.08594 	0.99999 	4.37239e-17 	6.28235 	2.34954
1.08906 	0.99999 	4.37239e-17 	6.28031 	2.35256
1.09219 	0.99999 	4.37239e-17 	6.28952 	2.35675
1.09531 	0.99999 	4.37239e-17 	6.29262 	2.36001
1.09844 	0.99999 	4.37239e-17 	6.28287 	2.36168
1.10156 	0.99999 	4.51117e-17 	6.26435 	2.36215
1.10469 	0.99999 	4.64995e-17 	6.2395 	2.36179
1.10781 	0.99999 	4.78872e-17 	6.20317 	2.35966
1.11094 	0.99999 	4.82342e-17 	6.15425 	2.35555
1.11406 	0.99999 	4.71934e-17 	6.10012 	2.35038
1.11719 	0.99999 	4.71934e-17 	6.05095 	2.3452
1.12031 	0.99999 	4.71934e-17 	6.01326 	2.34061
1.12344 	0.99999 	4.54586e-17 	5.98266 	2.33622
1.12656 	0.99999 	4.37239e-17 	5.95401 	2.33146
1.12969 	0.99999 	4.37239e-17 	5.92832 	2.32648
1.13281 	0.99999 	4.37239e-17 	5.90761 	2.32159
1.13594 	0.99999 	4.37239e-17 	5.89061 	2.31671
1.13906 	0.99999 	4.37239e-17 	5.87693 	2.31184
1.14219 	0.99999 	4.37239e-17 	5.865 	2.3069
1.14531 	0.99999 	4.51117e-17 	5.84943 	2.30141
1.14844 	0.99999 	4.64995e-17 	5.82553 	2.29501
1.15156 	0.99999 	4.64995e-17 	5.79395 	2.28798
1.15469 	0.99999 	4.64995e-17 	5.76082 	2.28118
1.15781 	0.99999 	4.68464e-17 	5.72421 	2.27452
1.16094 	0.99999 	4.58056e-17 	5.68286 	2.26825
1.16406 	0.99999 	4.44178e-17 	5.64353 	2.26385
1.16719 	0.99999 	4.44178e-17 	5.61372 	2.26224
1.17031 	0.99999 	4.44178e-17 	5.59051 	2.26204
1.17344 	0.99999 	4.303e-17 	5.56892 	2.26222
1.17656 	0.99999 	4.303e-17 	5.54886 	2.26288
1.17969 	0.99999 	4.26831e-17 	5.53221 	2.26403
1.18281 	0.99999 	3.95606e-17 	5.51864 	2.26548
1.18594 	0.99999 	3.78259e-17 	5.50746 	2.26706
1.18906 	0.99999 	3.64381e-17 	5.49441 	2.26822
1.19219 	0.99999 	3.36625e-17 	5.47663 	2.26866
1.19531 	0.99999 	3.19278e-17 	5.4523 	2.26832
1.19844 	0.99999 	3.50503e-17 	5.42101 	2.26685
1.20156 	0.99999 	3.81728e-17 	5.38452 	2.26444
1.20469 	0.99999 	3.81728e-17 	5.34594 	2.26151
1.20781 	0.99999 	3.64381e-17 	5.30972 	2.25841
1.21094 	0.99999 	3.43564e-17 	5.27818 	2.25543
1.21406 	0.99999 	3.40095e-17 	5.25209 	2.25269
1.21719 	0.99999 	3.40095e-17 	5.23009 	2.25001
1.22031 	0.99999 	3.57442e-17 	5.20914 	2.24697
1.22344 	0.99999 	3.74789e-17 	5.18911 	2.24353
1.22656 	0.99999 	3.74789e-17 	5.17209 	2.23993
1.22969 	0.99999 	3.74789e-17 	5.15772 	2.23619
1.23281 	0.99999 	3.74789e-17 	5.14153 	2.23178
1.23594 	0.99999 	3.60911e-17 	5.12172 	2.22651
1.23906 	0.99999 	3.47034e-17 	5.0977 	2.22038
1.24219 	0.99999 	3.29686e-17 	5.07084 	2.21363
1.24531 	0.99999 	3.29686e-17 	5.04275 	2.2066
1.24844 	0.99999 	3.47034e-17 	5.01334 	2.19946
1.25156 	0.99999 	3.47034e-17 	4.98286 	2.19237
1.25469 	0.99999 	3.47034e-17 	4.95274 	2.18562
1.25781 	0.99999 	3.47034e-17 	4.92507 	2.17963
1.26094 	0.99999 	3.47034e-17 	4.90008 	2.17471
1.26406 	0.99999 	3.47034e-17 	4.87604 	2.17121
1.26719 	0.99999 	3.50503e-17 	4.85191 	2.16923
1.27031 	0.99999 	3.53972e-17 	4.827 	2.16819
1.27344 	0.99999 	3.36625e-17 	4.80225 	2.1676
1.27656 	0.99999 	3.01931e-17 	4.77927 	2.16734
1.27969 	0.99999 	2.98461e-17 	4.75739 	2.16729
1.28281 	0.99999 	2.98461e-17 	4.73498 	2.16718
1.28594 	0.99999 	2.84583e-17 	4.71183 	2.16683
1.28906 	0.99999 	2.84583e-17 	4.68877 	2.16629
1.29219 	0.99999 	2.84583e-17 	4.66776 	2.16589
1.29531 	0.99999 	2.98461e-17 	4.65167 	2.16596
1.29844 	0.99999 	3.12339e-17 	4.64036 	2.16654
1.30156 	0.99999 	3.12339e-17 	4.633 	2.16751
1.30469 	0.99999 	3.29686e-17 	4.62358 	2.16792
1.30781 	0.99999 	3.29686e-17 	4.60914 	2.16764
1.31094 	0.99999 	3.12339e-17 	4.58791 	2.1661
1.31406 	0.99999 	3.15808e-17 	4.55845 	2.16298
1.31719 	0.99999 	3.19278e-17 	4.52291 	2.15868
1.32031 	0.99999 	3.054e-17 	4.4821 	2.15327
1.32344 	0.99999 	2.91522e-17 	4.44295 	2.14761
1.32656 	0.99999 	2.77645e-17 	4.41497 	2.14307
1.32969 	0.99999 	2.63767e-17 	4.39619 	2.13941
1.33281 	0.99999 	2.63767e-17 	4.38048 	2.13574
1.33594 	0.99999 	2.63767e-17 	4.37339 	2.13307
1.33906 	0.99999 	2.63767e-17 	4.38692 	2.13292
1.34219 	0.99999 	2.77645e-17 	4.40523 	2.1328
1.34531 	0.99999 	2.94992e-17 	4.40311 	2.12989
1.34844 	0.99999 	2.98461e-17 	4.38135 	2.12325
1.35156 	0.99999 	2.98461e-17 	4.35425 	2.11616
1.35469 	0.99999 	2.98461e-17 	4.31633 	2.10762
1.35781 	0.99999 	2.98461e-17 	4.2638 	2.09717
1.36094 	0.99999 	2.98461e-17 	4.20603 	2.0863
1.36406 	0.99999 	2.98461e-17 	4.16064 	2.07776
1.36719 	0.99999 	2.98461e-17 	4.12989 	2.07222
1.37031 	0.99999 	2.98461e-17 	4.11065 	2.06952
1.37344 	0.99999 	2.98461e-17 	4.09815 	2.06882
1.37656 	0.99999 	2.88053e-17 	4.09078 	2.06918
1.37969 	0.99999 	2.77645e-17 	4.09542 	2.07206
1.38281 	0.99999 	2.77645e-17 	4.10491 	2.07627
1.38594 	0.99999 	2.77645e-17 	4.10558 	2.07895
1.38906 	0.99999 	2.77645e-17 	4.09823 	2.0804
1.39219 	0.99999 	2.74175e-17 	4.08596 	2.08098
1.39531 	0.99999 	2.70706e-17 	4.06678 	2.08061
1.39844 	0.99999 	2.70706e-17 	4.03812 	2.07857
1.40156 	0.99999 	2.70706e-17 	4.00142 	2.07506
1.40469 	0.99999 	2.70706e-17 	3.96125 	2.07089
1.40781 	0.99999 	2.70706e-17 	3.92834 	2.06761
1.41094 	0.99999 	2.70706e-17 	3.90862 	2.0662
1.41406 	0.99999 	2.70706e-17 	3.89744 	2.06587
1.41719 	0.99999 	2.70706e-17 	3.88977 	2.06587
1.42031 	0.99999 	2.70706e-17 	3.88381 	2.06602
1.42344 	0.99999 	2.4295e-17 	3.87429 	2.06552
1.42656 	0.99999 	2.15195e-17 	3.85989 	2.06391
1.42969 	0.99999 	2.15195e-17 	3.83281 	2.05997
1.43281 	0.99999 	2.15195e-17 	3.79629 	2.05412
1.43594 	0.99999 	2.15195e-17 	3.77144 	2.04956
1.43906 	0.99999 	2.15195e-17 	3.75717 	2.04624
1.44219 	0.99999 	2.15195e-17 	3.74509 	2.04279
1.44531 	0.99999 	2.15195e-17 	3.73913 	2.03998
1.44844 	0.99999 	2.15195e-17 	3.74259 	2.03839
1.45156 	0.99999 	2.15195e-17 	3.73648 	2.0349
1.45469 	0.99999 	2.04786e-17 	3.71943 	2.02925
1.45781 	0.99999 	1.94378e-17 	3.69978 	2.02323
1.46094 	0.99999 	1.94378e-17 	3.67346 	2.01612
1.46406 	0.99999 	1.94378e-17 	3.63974 	2.00793
1.46719 	0.99999 	1.94378e-17 	3.61054 	2.00064
1.47031 	0.99999 	1.94378e-17 	3.5919 	1.9953
1.47344 	0.99999 	1.94378e-17 	3.57897 	1.99133
1.47656 	0.99999 	1.94378e-17 	3.57244 	1.98909
1.47969 	0.99999 	1.94378e-17 	3.565 	1.98763
1.48281 	0.99999 	1.94378e-17 	3.55427 	1.98674
1.48594 	0.99999 	1.94378e-17 	3.53931 	1.98595
1.48906 	0.99999 	1.94378e-17 	3.5157 	1.98432
1.49219 	0.99999 	1.94378e-17 	3.48552 	1.98183
1.49531 	0.99999 	1.94378e-17 	3.45462 	1.97923
1.49844 	0.99999 	1.94378e-17 	3.42503 	1.97672
1.50156 	0.99999 	1.66622e-17 	3.4007 	1.97492
1.50469 	0.99999 	1.38867e-17 	3.38474 	1.97438
1.50781 	0.99999 	1.38867e-17 	3.37582 	1.97471
1.51094 	0.99999 	1.38867e-17 	3.37136 	1.97573
1.51406 	0.99999 	1.38867e-17 	3.37519 	1.97812
1.51719 	0.99999 	1.38867e-17 	3.38223 	1.98088
1.52031 	0.99999 	1.38867e-17 	3.37775 	1.98139
1.52344 	0.99999 	1.38867e-17 	3.36916 	1.9815
1.52656 	0.99999 	1.38867e-17 	3.35411 	1.98036
1.52969 	0.99999 	1.38867e-17 	3.32543 	1.97638
1.53281 	0.99999 	1.11111e-17 	3.28849 	1.97074
1.53594 	0.99999 	8.33555e-18 	3.25857 	1.96612
1.53906 	0.99999 	8.33555e-18 	3.24185 	1.96358
1.54219 	0.99999 	8.33555e-18 	3.2319 	1.96196
1.54531 	0.99999 	8.33555e-18 	3.22458 	1.96045
1.54844 	0.99999 	8.33555e-18 	3.2218 	1.95935
1.55156 	0.99999 	9.72333e-18 	3.21902 	1.95795
1.55469 	0.99999 	9.72333e-18 	3.20933 	1.95496
1.55781 	0.99999 	6.94778e-18 	3.19607 	1.95099
1.56094 	0.99999 	5.56e-18 	3.17469 	1.94524
1.56406 	0.99999 	5.56e-18 	3.14574 	1.93784
1.56719 	0.99999 	4.17222e-18 	3.12157 	1.93099
1.57031 	0.99999 	4.17222e-18 	3.10644 	1.92563
1.57344 	0.99999 	5.56e-18 	3.09445 	1.92076
1.57656 	0.99999 	4.17222e-18 	3.08597 	1.91662
1.57969 	0.99999 	4.86611e-18 	3.08933 	1.91482
1.58281 	0.99999 	6.94778e-18 	3.09364 	1.91325
1.58594 	0.99999 	8.33555e-18 	3.08485 	1.90963
1.58906 	0.99999 	9.72333e-18 	3.0715 	1.90584
1.59219 	0.99999 	9.72333e-18 	3.05256 	1.90195
1.59531 	0.99999 	1.14581e-17 	3.02421 	1.89733
1.59844 	0.99999 	1.00703e-17 	2.99304 	1.89302
1.60156 	0.99999 	6.94778e-18 	2.96882 	1.89047
1.60469 	0.99999 	2.09055e-18 	2.95187 	1.88947
1.60781 	0.99999 	-2.76668e-18 	2.93886 	1.88932
1.61094 	0.99999 	-6.85008e-19 	2.9296 	1.88988
1.61406 	0.99999 	-2.07279e-18 	2.92462 	1.89136
1.61719 	0.99999 	-6.93001e-18 	2.92225 	1.89303
1.62031 	0.99999 	-1.17872e-17 	2.92434 	1.8953
1.62344 	0.99999 	-1.52567e-17 	2.92422 	1.89696
1.62656 	0.99999 	-1.52567e-17 	2.91971 	1.89769
1.62969 	0.99999 	-1.52567e-17 	2.91048 	1.89759
1.63281 	0.99999 	-1.52567e-17 	2.89213 	1.89563
1.63594 	0.99999 	-1.38689e-17 	2.86739 	1.89213
1.63906 	0.99999 	-1.42159e-17 	2.84489 	1.889
1.64219 	0.99999 	-1.45628e-17 	2.82595 	1.88643
1.64531 	0.99999 	-1.3175e-17 	2.80821 	1.88388
1.64844 	0.99999 	-1.62975e-17 	2.79234 	1.88147
1.65156 	0.99999 	-1.62975e-17 	2.77947 	1.87946
1.65469 	0.99999 	-1.17872e-17 	2.76967 	1.87786
1.65781 	0.99999 	-1.14403e-17 	2.7627 	1.87659
1.66094 	0.99999 	-1.10933e-17 	2.75836 	1.87552
1.66406 	0.99999 	-9.70557e-18 	2.75826 	1.87499
1.66719 	0.99999 	-1.10933e-17 	2.75564 	1.87361
1.67031 	0.99999 	-1.38689e-17 	2.74809 	1.87079
1.67344 	0.99999 	-1.3175e-17 	2.73725 	1.86702
1.67656 	0.99999 	-1.24811e-17 	2.72332 	1.86235
1.67969 	0.99999 	-1.59506e-17 	2.70842 	1.85716
1.68281 	0.99999 	-1.80322e-17 	2.69277 	1.85153
1.68594 	0.99999 	-1.80322e-17 	2.67424 	1.8451
1.68906 	0.99999 	-2.08078e-17 	2.65103 	1.83776
1.69219 	0.99999 	-2.35834e-17 	2.62716 	1.8304
1.69531 	0.99999 	-2.49711e-17 	2.60954 	1.82455
1.69844 	0.99999 	-2.49711e-17 	2.59946 	1.82069
1.70156 	0.99999 	-2.21956e-17 	2.59494 	1.81866
1.70469 	0.99999 	-2.08078e-17 	2.60117 	1.81906
1.70781 	0.99999 	-2.08078e-17 	2.60576 	1.81954
1.71094 	0.99999 	-1.942e-17 	2.60083 	1.81866
1.71406 	0.99999 	-1.80322e-17 	2.59154 	1.81775
1.71719 	0.99999 	-1.80322e-17 	2.57541 	1.81617
1.72031 	0.99999 	-1.80322e-17 	2.55332 	1.81368
1.72344 	0.99999 	-1.66445e-17 	2.53045 	1.81115
1.72656 	0.99999 	-1.52567e-17 	2.50772 	1.8087
1.72969 	0.99999 	-1.38689e-17 	2.48774 	1.80678
1.73281 	0.99999 	-1.10933e-17 	2.4754 	1.8063
1.73594 	0.99999 	-1.10933e-17 	2.47018 	1.80694
1.73906 	0.99999 	-1.24811e-17 	2.46876 	1.80846
1.74219 	0.99999 	-1.10933e-17 	2.47365 	1.81128
1.74531 	0.99999 	-8.31779e-18 	2.48206 	1.81451
1.74844 	0.99999 	-6.93001e-18 	2.4804 	1.8152
1.75156 	0.99999 	-6.93001e-18 	2.47495 	1.81542
1.75469 	0.99999 	-8.31779e-18 	2.46549 	1.81479
1.75781 	0.99999 	-9.70557e-18 	2.44499 	1.81131
1.76094 	0.99999 	-1.10933e-17 	2.41127 	1.80458
1.76406 	0.99999 	-1.24811e-17 	2.37622 	1.79745
1.76719 	0.99999 	-1.66445e-17 	2.35569 	1.79331
1.77031 	0.99999 	-2.08078e-17 	2.34692 	1.79152
1.77344 	0.99999 	-2.08078e-17 	2.34228 	1.79046
1.77656 	0.99999 	-2.08078e-17 	2.34059 	1.78995
1.77969 	0.99999 	-2.39303e-17 	2.35108 	1.79187
1.78281 	0.99999 	-2.67059e-17 	2.37143 	1.79545
1.78594 	0.99999 	-2.63589e-17 	2.38056 	1.79644
1.78906 	0.99999 	-2.63589e-17 	2.37666 	1.79444
1.79219 	0.99999 	-2.63589e-17 	2.36645 	1.79017
1.79531 	0.99999 	-2.63589e-17 	2.35057 	1.78455
1.79844 	0.99999 	-2.63589e-17 	2.32305 	1.77627
1.80156 	0.99999 	-2.63589e-17 	2.28397 	1.76527
1.80469 	0.99999 	-2.63589e-17 	2.25165 	1.75555
1.80781 	0.99999 	-2.63589e-17 	2.23607 	1.74957
1.81094 	0.99999 	-2.49711e-17 	2.22878 	1.74581
1.81406 	0.99999 	-2.63589e-17 	2.22531 	1.74355
1.81719 	0.99999 	-2.91345e-17 	2.23458 	1.7441
1.82031 	0.99999 	-3.05223e-17 	2.25509 	1.74719
1.82344 	0.99999 	-3.191e-17 	2.25983 	1.74786
1.82656 	0.99999 	-3.32978e-17 	2.25381 	1.74627
1.82969 	0.99999 	-3.46856e-17 	2.24407 	1.74455
1.83281 	0.99999 	-3.46856e-17 	2.22682 	1.74197
1.83594 	0.99999 	-3.60734e-17 	2.19769 	1.73719
1.83906 	0.99999 	-3.91959e-17 	2.16326 	1.73142
1.84219 	0.99999 	-3.78081e-17 	2.14136 	1.72873
1.84531 	0.99999 	-3.74611e-17 	2.13295 	1.72875
1.84844 	0.99999 	-4.02367e-17 	2.13079 	1.73033
1.85156 	0.99999 	-4.02367e-17 	2.13141 	1.73283
1.85469 	0.99999 	-4.16245e-17 	2.14045 	1.73733
1.85781 	0.99999 	-4.16245e-17 	2.16434 	1.74452
1.86094 	0.99999 	-4.02367e-17 	2.17762 	1.74884
1.86406 	0.99999 	-4.16245e-17 	2.17583 	1.74931
1.86719 	0.99999 	-4.61348e-17 	2.17008 	1.74939
1.87031 	0.99999 	-4.92573e-17 	2.15814 	1.7481
1.87344 	0.99999 	-4.92573e-17 	2.12892 	1.74209
1.87656 	0.99999 	-4.78695e-17 	2.0774 	1.73032
1.87969 	0.99999 	-4.64817e-17 	2.0324 	1.7199
1.88281 	0.99999 	-4.64817e-17 	2.01451 	1.71581
1.88594 	0.99999 	-4.78695e-17 	2.00933 	1.71462
1.88906 	0.99999 	-4.92573e-17 	2.00696 	1.714
1.89219 	0.99999 	-4.89103e-17 	2.01015 	1.71462
1.89531 	0.99999 	-4.85634e-17 	2.03414 	1.71995
1.89844 	0.99999 	-4.71756e-17 	2.07219 	1.72824
1.90156 	0.99999 	-4.57878e-17 	2.08827 	1.73116
1.90469 	0.99999 	-4.57878e-17 	2.08522 	1.72964
1.90781 	0.99999 	-4.71756e-17 	2.07584 	1.72575
1.91094 	0.99999 	-4.99512e-17 	2.0589 	1.71985
1.91406 	0.99999 	-4.99512e-17 	2.02375 	1.70955
1.91719 	0.99999 	-4.85634e-17 	1.96907 	1.69423
1.92031 	0.99999 	-4.71756e-17 	1.93013 	1.68218
1.92344 	0.99999 	-4.50939e-17 	1.91718 	1.67654
1.92656 	0.99999 	-4.64817e-17 	1.91236 	1.67335
1.92969 	0.99999 	-4.71756e-17 	1.91208 	1.67184
1.93281 	0.99999 	-4.75225e-17 	1.9268 	1.6731
1.93594 	0.99999 	-5.0992e-17 	1.95949 	1.67922
1.93906 	0.99999 	-5.58492e-17 	1.97788 	1.68302
1.94219 	0.99999 	-5.93187e-17 	1.97611 	1.68219
1.94531 	0.99999 	-5.96656e-17 	1.96768 	1.67985
1.94844 	0.99999 	-5.96656e-17 	1.94935 	1.67612
1.95156 	0.99999 	-5.96656e-17 	1.91402 	1.66909
1.95469 	0.99999 	-6.14003e-17 	1.86979 	1.66006
1.95781 	0.99999 	-6.31351e-17 	1.84346 	1.65574
1.96094 	0.99999 	-6.31351e-17 	1.8342 	1.65546
1.96406 	0.99999 	-6.14003e-17 	1.83183 	1.65689
1.96719 	0.99999 	-5.96656e-17 	1.83257 	1.65976
1.97031 	0.99999 	-6.24412e-17 	1.83729 	1.66362
1.97344 	0.99999 	-6.52167e-17 	1.85833 	1.67112
1.97656 	0.99999 	-6.52167e-17 	1.88664 	1.67954
1.97969 	0.99999 	-6.38289e-17 	1.89494 	1.68273
1.98281 	0.99999 	-6.24412e-17 	1.89269 	1.68294
1.98594 	0.99999 	-6.20942e-17 	1.88675 	1.68279
1.98906 	0.99999 	-6.48698e-17 	1.8717 	1.6801
1.99219 	0.99999 	-6.79923e-17 	1.83527 	1.671
1.99531 	0.99999 	-6.79923e-17 	1.78128 	1.65687
1.99844 	0.99999 	-6.79923e-17 	1.74822 	1.6482
2.00156 	0.99999 	-6.9727e-17 	1.73912 	1.64583
2.00469 	0.99999 	-6.9727e-17 	1.73622 	1.64503
2.00781 	0.99999 	-6.93801e-17 	1.73479 	1.64455
2.01094 	0.99999 	-7.07678e-17 	1.74092 	1.64598
2.01406 	0.99999 	-7.07678e-17 	1.76714 	1.6525
2.01719 	0.99999 	-6.93801e-17 	1.79736 	1.65971
2.02031 	0.99999 	-6.79923e-17 	1.805 	1.66103
2.02344 	0.99999 	-6.79923e-17 	1.80089 	1.65904
2.02656 	0.99999 	-6.79923e-17 	1.79231 	1.65513
2.02969 	0.99999 	-6.66045e-17 	1.77649 	1.64919
2.03281 	0.99999 	-6.69514e-17 	1.74652 	1.63941
2.03594 	0.99999 	-7.00739e-17 	1.7112 	1.62785
2.03906 	0.99999 	-7.14617e-17 	1.69348 	1.62067
2.04219 	0.99999 	-7.31964e-17 	1.68757 	1.61692
2.04531 	0.99999 	-7.18087e-17 	1.68428 	1.61427
2.04844 	0.99999 	-6.86862e-17 	1.68817 	1.61378
2.05156 	0.99999 	-6.69514e-17 	1.70914 	1.61673
2.05469 	0.99999 	-6.52167e-17 	1.73692 	1.62277
2.05781 	0.99999 	-6.52167e-17 	1.74248 	1.62372
2.06094 	0.99999 	-6.52167e-17 	1.73752 	1.62171
2.06406 	0.99999 	-6.52167e-17 	1.72684 	1.6187
2.06719 	0.99999 	-6.38289e-17 	1.70324 	1.61348
2.07031 	0.99999 	-6.24412e-17 	1.6604 	1.60374
2.07344 	0.99999 	-6.24412e-17 	1.62188 	1.59537