0.0015625 	0.99999 	-1.03195e-18 	3 	-1.67862e-16 	0
0.0046875 	0.99999 	8.88178e-21 	3 	-2.70659e-17 	0
0.0078125 	0.99999 	1.39666e-18 	3 	3.39909e-16 	0
0.0109375 	0.99999 	8.88178e-21 	3 	3.58033e-16 	0
0.0140625 	0.99999 	-2.76668e-18 	3 	-2.02161e-17 	0
0.0171875 	0.99999 	-5.54223e-18 	3 	-7.08431e-16 	0
0.0203125 	0.99999 	-6.58307e-18 	3 	-4.44027e-16 	0
0.0234375 	0.99999 	-4.84834e-18 	3 	5.3922e-17 	0
0.0265625 	0.99999 	-2.07279e-18 	3 	-5.97162e-17 	0
0.0296875 	0.99999 	-2.41973e-18 	3 	-2.94616e-16 	0
0.0328125 	0.99999 	-2.76668e-18 	3 	2.47412e-17 	0
0.0359375 	0.99999 	-1.03195e-18 	3 	1.72856e-17 	0
0.0390625 	0.99999 	-6.85008e-19 	3 	-4.72952e-16 	0
0.0421875 	0.99999 	-2.41973e-18 	3 	-6.45954e-16 	0
0.0453125 	0.99999 	-4.15445e-18 	3 	-5.27641e-16 	0
0.0484375 	0.99999 	-4.15445e-18 	3 	5.30211e-16 	0
0.0515625 	0.99999 	-2.41973e-18 	3 	8.69476e-16 	0
0.0546875 	0.99999 	-3.80751e-18 	3 	4.1999e-16 	0
0.0578125 	0.99999 	-6.58307e-18 	3 	4.40327e-16 	0
0.0609375 	0.99999 	-6.23612e-18 	3 	-2.37856e-16 	0
0.0640625 	0.99999 	-7.6239e-18 	3 	-3.8611e-16 	0
0.0671875 	0.99999 	-7.6239e-18 	3 	-1.17235e-15 	0
0.0703125 	0.99999 	-4.84834e-18 	3 	-1.35273e-15 	0
0.0734375 	0.99999 	-5.19529e-18 	3 	-1.29499e-15 	0
0.0765625 	0.99999 	-5.54223e-18 	3 	-1.15899e-15 	0
0.0796875 	0.99999 	-2.76668e-18 	3 	-5.46509e-16 	0
0.0828125 	0.99999 	8.88178e-21 	3 	-5.47723e-17 	0
0.0859375 	0.99999 	3.13138e-18 	3 	-2.01312e-16 	0
0.0890625 	0.99999 	3.47833e-18 	3 	-2.7784e-16 	0
0.0921875 	0.99999 	3.47833e-18 	3 	-4.75386e-17 	0
0.0953125 	0.99999 	6.25389e-18 	3 	1.2847e-16 	0
0.0984375 	0.99999 	6.25389e-18 	3 	-2.59077e-17 	0
0.101562 	0.99999 	4.51916e-18 	3 	-4.23492e-16 	0
0.104687 	0.99999 	5.90694e-18 	3 	-1.67957e-16 	0
0.107812 	0.99999 	7.29472e-18 	3 	4.85088e-18 	0
0.110937 	0.99999 	8.33555e-18 	3 	3.81238e-18 	0
0.114062 	0.99999 	1.14581e-17 	3 	-1.81015e-16 	0
0.117187 	0.99999 	1.31928e-17 	3 	-7.38118e-16 	0
0.120312 	0.99999 	8.33555e-18 	3 	-5.36424e-16 	0
0.123437 	0.99999 	5.21305e-18 	3 	-6.23321e-16 	0
0.126562 	0.99999 	8.6825e-18 	3 	-7.26943e-16 	0
0.129687 	0.99999 	1.04172e-17 	3 	-6.78851e-16 	0
0.132812 	0.99999 	6.94778e-18 	3 	-7.47788e-16 	0
0.135937 	0.99999 	2.09055e-18 	3 	-1.11686e-15 	0
0.139062 	0.99999 	7.02771e-19 	3 	-1.87035e-15 	0
0.142187 	0.99999 	-2.41973e-18 	3 	-2.04826e-15 	0
0.145312 	0.99999 	-6.93001e-18 	3 	-1.59563e-15 	0
0.148437 	0.99999 	-1.00525e-17 	3 	-1.0202e-15 	0
0.151562 	0.99999 	-1.14403e-17 	3 	2.15813e-16 	0
0.154687 	0.99999 	-7.97085e-18 	3 	4.12491e-17 	0
0.157812 	0.99999 	-3.46057e-18 	3 	-4.83105e-16 	0
0.160937 	0.99999 	-6.85008e-19 	3 	-7.57837e-16 	0
0.164062 	0.99999 	7.02771e-19 	3 	-6.73259e-16 	0
0.167187 	0.99999 	2.43749e-18 	3 	-4.48955e-16 	0
0.170312 	0.99999 	5.56e-18 	3 	-4.2734e-16 	0
0.173437 	0.99999 	5.21305e-18 	3 	-1.38588e-16 	0
0.176562 	0.99999 	3.47833e-18 	3 	-1.96948e-16 	0
0.179687 	0.99999 	4.86611e-18 	3 	-4.09963e-16 	0
0.182812 	0.99999 	4.86611e-18 	3 	-1.51306e-16 	0
0.185937 	0.99999 	4.86611e-18 	3 	5.58326e-16 	0
0.189062 	0.99999 	7.64167e-18 	3 	7.74168e-16 	0
0.192187 	0.99999 	1.07642e-17 	3 	9.97205e-16 	0
0.195312 	0.99999 	1.38867e-17 	3 	4.54164e-16 	0
0.198437 	0.99999 	1.8397e-17 	3 	-1.23572e-15 	0
0.201562 	0.99999 	2.29072e-17 	3 	-1.42255e-15 	0
0.204687 	0.99999 	2.4295e-17 	3 	-1.46411e-15 	0
0.207812 	0.99999 	2.4295e-17 	3 	-8.21029e-16 	0
0.210937 	0.99999 	2.56828e-17 	3 	-7.0266e-16 	0
0.214062 	0.99999 	2.56828e-17 	3 	-1.26848e-16 	0
0.217187 	0.99999 	2.29072e-17 	3 	5.7128e-16 	0
0.220312 	0.99999 	2.32542e-17 	3 	1.56124e-15 	0
0.223437 	0.99999 	2.49889e-17 	3 	1.58108e-15 	0
0.226562 	0.99999 	2.84583e-17 	3 	1.39106e-15 	0
0.229687 	0.99999 	3.054e-17 	3 	1.04466e-15 	0
0.232812 	0.99999 	2.77645e-17 	3 	6.71408e-16 	0
0.235937 	0.99999 	2.63767e-17 	3 	7.62313e-17 	0
0.239062 	0.99999 	2.77645e-17 	3 	-5.01801e-16 	0
0.242187 	0.99999 	3.054e-17 	3 	6.50263e-17 	0
0.245312 	0.99999 	2.84583e-17 	3 	4.14843e-16 	0
0.248437 	0.99999 	2.49889e-17 	3 	1.13894e-15 	0
0.251562 	0.99999 	2.49889e-17 	3 	1.03946e-15 	0
0.254687 	0.99999 	2.49889e-17 	3 	4.8863e-16 	0
0.257812 	0.99999 	2.36011e-17 	3 	1.1302e-15 	0
0.260937 	0.99999 	2.22133e-17 	3 	1.27658e-15 	0
0.264062 	0.99999 	2.36011e-17 	3 	1.18647e-15 	0
0.267187 	0.99999 	2.63767e-17 	3 	1.01009e-15 	0
0.270312 	0.99999 	2.91522e-17 	3 	1.07499e-15 	0
0.273437 	0.99999 	3.054e-17 	3 	5.04537e-16 	0
0.276562 	0.99999 	3.054e-17 	3 	-1.07995e-16 	0
0.279687 	0.99999 	3.054e-17 	3 	-1.21442e-16 	0
0.282812 	0.99999 	2.88053e-17 	3 	3.34532e-16 	0
0.285937 	0.99999 	2.70706e-17 	3 	5.42926e-16 	0
0.289062 	0.99999 	2.56828e-17 	3 	1.26042e-15 	0
0.292187 	0.99999 	2.56828e-17 	3 	1.84041e-15 	0
0.295312 	0.99999 	2.84583e-17 	3 	1.17178e-15 	0
0.298437 	0.99999 	2.94992e-17 	3 	6.40558e-16 	0
0.301562 	0.99999 	2.94992e-17 	3 	7.5593e-16 	0
0.304687 	0.99999 	3.01931e-17 	3 	9.83787e-16 	0
0.307812 	0.99999 	2.91522e-17 	3 	7.86425e-16 	0
0.310937 	0.99999 	2.91522e-17 	3 	3.94175e-16 	0
0.314062 	0.99999 	2.88053e-17 	3 	-3.61298e-16 	0
0.317187 	0.99999 	2.56828e-17 	3 	-8.49155e-16 	0
0.320312 	0.99999 	2.29072e-17 	3 	-7.30912e-16 	0
0.323437 	0.99999 	1.97847e-17 	3 	-6.86895e-16 	0
0.326562 	0.99999 	1.63153e-17 	3 	-4.85463e-16 	0
0.329687 	0.99999 	1.59683e-17 	3 	-8.82106e-16 	0
0.332812 	0.99999 	1.56214e-17 	3 	-9.16697e-16 	0
0.335937 	0.99999 	1.21519e-17 	3 	-9.94233e-16 	0
0.339062 	0.99999 	1.04172e-17 	3 	-8.25926e-16 	0
0.342187 	0.99999 	9.02944e-18 	3 	-7.57745e-16 	0
0.345312 	0.99999 	7.64167e-18 	3 	-7.49577e-16 	0
0.348437 	0.99999 	7.64167e-18 	3 	-9.61171e-16 	0
0.351562 	0.99999 	9.02944e-18 	3 	-6.71026e-16 	0
0.354687 	0.99999 	1.04172e-17 	3 	-7.06169e-16 	0
0.357812 	0.99999 	1.04172e-17 	3 	-6.16208e-16 	0
0.360937 	0.99999 	1.04172e-17 	3 	-5.61495e-16 	0
0.364062 	0.99999 	1.04172e-17 	3 	3.50701e-16 	0
0.367187 	0.99999 	9.02944e-18 	3 	1.12522e-15 	0
0.370312 	0.99999 	9.02944e-18 	3 	1.01665e-15 	0
0.373437 	0.99999 	1.00703e-17 	3 	6.91217e-16 	0
0.376562 	0.99999 	1.11111e-17 	3 	5.84516e-16 	0
0.379687 	0.99999 	1.24989e-17 	3 	2.60059e-16 	0
0.382812 	0.99999 	1.07642e-17 	3 	1.34617e-16 	0
0.385937 	0.99999 	8.6825e-18 	3 	4.51687e-16 	0
0.389062 	0.99999 	8.33555e-18 	3 	4.81636e-16 	0
0.392187 	0.99999 	9.72333e-18 	3 	6.69354e-17 	0
0.395312 	0.99999 	1.24989e-17 	3 	2.09429e-17 	0
0.398437 	0.99999 	1.38867e-17 	3 	-4.2995e-16 	0
0.401562 	0.99999 	1.07642e-17 	3 	-7.586e-16 	0
0.404687 	0.99999 	1.07642e-17 	3 	-1.12712e-15 	0
0.407812 	0.99999 	1.21519e-17 	3 	-1.07546e-15 	0
0.410937 	0.99999 	1.1805e-17 	3 	-8.67053e-16 	0
0.414062 	0.99999 	1.1805e-17 	3 	-3.46671e-16 	0
0.417187 	0.99999 	1.04172e-17 	3 	-4.99507e-16 	0
0.420312 	0.99999 	1.04172e-17 	3 	7.22874e-16 	0
0.423437 	0.99999 	8.6825e-18 	3 	1.00949e-15 	0
0.426562 	0.99999 	8.6825e-18 	3 	1.14484e-15 	0
0.429687 	0.99999 	8.6825e-18 	3 	5.59165e-16 	0
0.432812 	0.99999 	6.60083e-18 	3 	-2.10364e-16 	0
0.435937 	0.99999 	4.51916e-18 	3 	1.78371e-16 	0
0.439062 	0.99999 	5.90694e-18 	3 	-5.40527e-16 	0
0.442187 	0.99999 	9.02944e-18 	3 	-9.4836e-16 	0
0.445312 	0.99999 	9.02944e-18 	3 	-3.60623e-16 	0
0.448437 	0.99999 	7.29472e-18 	3 	-1.88218e-16 	0
0.451562 	0.99999 	4.17222e-18 	3 	1.71285e-16 	0
0.454687 	0.99999 	4.51916e-18 	3 	4.04936e-16 	0
0.457812 	0.99999 	4.51916e-18 	3 	3.18836e-16 	0
0.460937 	0.99999 	1.39666e-18 	3 	-7.5961e-17 	0
0.464062 	0.99999 	1.74361e-18 	3 	-1.03066e-15 	0
0.467187 	0.99999 	4.86611e-18 	3 	-8.63514e-16 	0
0.470312 	0.99999 	6.25389e-18 	3 	-5.45147e-16 	0
0.473437 	0.99999 	7.64167e-18 	3 	-5.03766e-16 	0
0.476562 	0.99999 	1.07642e-17 	3 	-1.33802e-15 	0
0.479687 	0.99999 	1.24989e-17 	3 	-1.42915e-15 	0
0.482812 	0.99999 	1.56214e-17 	3 	-1.36563e-15 	0
0.485937 	0.99999 	1.87439e-17 	3 	-1.02487e-15 	0
0.489062 	0.99999 	2.01317e-17 	3 	-1.04139e-15 	0
0.492187 	0.99999 	2.15195e-17 	3 	-6.36183e-16 	0
0.495312 	0.99999 	2.15195e-17 	3 	-1.667e-16 	0
0.498437 	0.99999 	2.15195e-17 	3 	-8.94676e-17 	0
0.501562 	0.99999 	2.01317e-17 	3 	-1.03865e-16 	0
0.504687 	0.99999 	2.04786e-17 	3 	6.39265e-17 	0
0.507812 	0.99999 	2.36011e-17 	3 	-9.092e-16 	0
0.510937 	0.99999 	2.49889e-17 	3 	-1.12435e-15 	0
0.514062 	0.99999 	2.63767e-17 	3 	-9.51226e-16 	0
0.517187 	0.99999 	2.77645e-17 	3 	-2.77033e-16 	0
0.520312 	0.99999 	2.77645e-17 	3 	1.83989e-16 	0
0.523437 	0.99999 	2.77645e-17 	3 	5.4133e-17 	0
0.526562 	0.99999 	2.77645e-17 	3 	-1.8549e-16 	0
0.529687 	0.99999 	2.94992e-17 	3 	-1.10728e-16 	0
0.532812 	0.99999 	3.12339e-17 	3 	-2.33636e-16 	0
0.535937 	0.99999 	3.26217e-17 	3 	2.14235e-16 	0
0.539062 	0.99999 	3.36625e-17 	3 	1.37501e-15 	0
0.542187 	0.99999 	3.47034e-17 	3 	2.12247e-15 	0
0.545312 	0.99999 	3.60911e-17 	3 	2.49392e-15 	0
0.548437 	0.99999 	3.29686e-17 	3 	1.68906e-15 	0
0.551562 	0.99999 	3.15808e-17 	3 	9.26533e-16 	0
0.554687 	0.99999 	3.01931e-17 	3 	2.7929e-16 	0
0.557812 	0.99999 	2.70706e-17 	3 	-9.48357e-17 	0
0.560937 	0.99999 	2.74175e-17 	3 	-5.85026e-17 	0
0.564062 	0.99999 	2.63767e-17 	3 	-2.35943e-16 	0
0.567187 	0.99999 	2.49889e-17 	3 	8.01464e-19 	0
0.570312 	0.99999 	2.18664e-17 	3 	-8.43069e-16 	0
0.573437 	0.99999 	2.01317e-17 	3 	-1.42808e-15 	0
0.576562 	0.99999 	2.29072e-17 	3 	-1.1298e-15 	0
0.579687 	0.99999 	2.74175e-17 	3 	-1.06502e-15 	0
0.582812 	0.99999 	3.054e-17 	3 	-7.6512e-16 	0
0.585937 	0.99999 	3.01931e-17 	3 	-1.76717e-16 	0
0.589062 	0.99999 	2.84583e-17 	2.29528 	0.00306704 	0
0.592187 	0.99999 	2.70706e-17 	0.832372 	0.0056142 	0
0.595312 	0.99999 	2.88053e-17 	0.729947 	0.0057278 	0
0.598437 	0.99999 	3.054e-17 	0.744848 	0.00567592 	0
0.601562 	0.99999 	2.91522e-17 	0.756661 	0.00511662 	0
0.604687 	0.99999 	2.77645e-17 	0.767939 	0.0042541 	0
0.607812 	0.99999 	2.63767e-17 	0.776962 	0.00304763 	0
0.610937 	0.99999 	2.36011e-17 	0.783352 	0.00223342 	0
0.614062 	0.99999 	2.22133e-17 	0.787839 	0.001848 	0
0.617187 	0.99999 	2.04786e-17 	0.790461 	0.00131127 	0
0.620312 	0.99999 	2.04786e-17 	0.792693 	0.00124741 	0
0.623437 	0.99999 	2.22133e-17 	0.793727 	0.00130407 	0
0.626562 	0.99999 	2.22133e-17 	0.793957 	0.00158308 	0
0.629687 	0.99999 	2.22133e-17 	0.792897 	0.00184841 	0
0.632812 	0.99999 	2.39481e-17 	0.789655 	0.00184228 	0
0.635937 	0.99999 	2.70706e-17 	0.786598 	0.00137963 	0
0.639062 	0.99999 	2.70706e-17 	0.787661 	0.000946944 	0
0.642187 	0.99999 	2.56828e-17 	0.790127 	0.000680747 	0
0.645312 	0.99999 	2.74175e-17 	0.794296 	0.000781537 	0
0.648437 	0.99999 	3.22747e-17 	0.800466 	0.00103412 	0
0.651562 	0.99999 	3.53972e-17 	0.808471 	0.00145198 	0
0.654687 	0.99999 	3.53972e-17 	0.817955 	0.00218204 	0
0.657812 	0.99999 	3.53972e-17 	0.82846 	0.00298928 	0
0.660937 	0.99999 	3.53972e-17 	0.839556 	0.00369022 	0
0.664062 	0.99999 	3.40095e-17 	0.850798 	0.00407317 	0
0.667187 	0.99999 	3.26217e-17 	0.861136 	0.00371252 	0
0.670312 	0.99999 	3.26217e-17 	0.869383 	0.0028149 	0
0.673437 	0.99999 	3.12339e-17 	0.875251 	0.00168151 	0
0.676562 	0.99999 	2.98461e-17 	0.879446 	0.000891078 	0
0.679687 	0.99999 	2.98461e-17 	0.882858 	0.000462077 	0
0.682812 	0.99999 	3.15808e-17 	0.885103 	0.000366486 	0
0.685937 	0.99999 	3.33156e-17 	0.887084 	0.00024217 	0
0.689062 	0.99999 	3.33156e-17 	0.888682 	-4.74833e-06 	0
0.692187 	0.99999 	3.33156e-17 	0.890227 	-0.000104115 	0
0.695312 	0.99999 	3.33156e-17 	0.891836 	-0.000124211 	0
0.698437 	0.99999 	3.50503e-17 	0.894104 	0.000226809 	0
0.701562 	0.99999 	3.6785e-17 	0.897241 	0.000361782 	0
0.704687 	0.99999 	3.99075e-17 	0.899841 	0.000609278 	0
0.707812 	0.99999 	4.303e-17 	0.902477 	0.000849417 	0
0.710937 	0.99999 	4.12953e-17 	0.905513 	0.0012468 	0
0.714062 	0.99999 	3.78259e-17 	0.90943 	0.00189923 	0
0.717187 	0.99999 	3.47034e-17 	0.914834 	0.00273419 	0
0.720312 	0.99999 	3.33156e-17 	0.922253 	0.00358895 	0
0.723437 	0.99999 	3.33156e-17 	0.931502 	0.00432178 	0
0.726562 	0.99999 	3.33156e-17 	0.942198 	0.00475904 	0
0.729687 	0.99999 	3.50503e-17 	0.95344 	0.00471158 	0
0.732812 	0.99999 	3.6785e-17 	0.96406 	0.00418246 	0
0.735937 	0.99999 	3.6785e-17 	0.973011 	0.00330315 	0
0.739062 	0.99999 	3.6785e-17 	0.979883 	0.00202805 	0
0.742187 	0.99999 	3.85197e-17 	0.985149 	0.00100985 	0
0.745312 	0.99999 	4.02545e-17 	0.988725 	0.000692876 	0
0.748437 	0.99999 	4.02545e-17 	0.991537 	0.00063166 	0
0.751562 	0.99999 	4.02545e-17 	0.994075 	0.000561045 	0
0.754687 	0.99999 	3.85197e-17 	0.996439 	0.000419965 	0
0.757812 	0.99999 	3.6785e-17 	0.998662 	0.000263778 	0
0.760937 	0.99999 	3.85197e-17 	1.00092 	0.000155739 	0
0.764062 	0.99999 	3.88667e-17 	1.0034 	0.000193114 	0
0.767187 	0.99999 	3.57442e-17 	1.00688 	0.000536235 	0
0.770312 	0.99999 	3.22747e-17 	1.0103 	0.000820858 	0
0.773437 	0.99999 	3.054e-17 	1.01313 	0.0010789 	0
0.776562 	0.99999 	3.22747e-17 	1.01615 	0.00143154 	0
0.779687 	0.99999 	3.57442e-17 	1.01955 	0.00167561 	0
0.782812 	0.99999 	3.7132e-17 	1.02369 	0.00209397 	0
0.785937 	0.99999 	3.64381e-17 	1.02911 	0.00264504 	0
0.789062 	0.99999 	3.60911e-17 	1.03621 	0.00322886 	0
0.792187 	0.99999 	3.60911e-17 	1.04505 	0.00372971 	0
0.795312 	0.99999 	3.60911e-17 	1.05516 	0.00409265 	0
0.798437 	0.99999 	3.60911e-17 	1.06575 	0.00420092 	0
0.801562 	0.99999 	3.60911e-17 	1.07591 	0.0039619 	0
0.804687 	0.99999 	3.60911e-17 	1.08446 	0.00301205 	0
0.807812 	0.99999 	3.47034e-17 	1.09062 	0.00185256 	0
0.810937 	0.99999 	3.50503e-17 	1.09578 	0.000977837 	0
0.814062 	0.99999 	3.53972e-17 	1.09956 	0.000250001 	0
0.817187 	0.99999 	3.40095e-17 	1.10241 	7.38207e-06 	0
0.820312 	0.99999 	3.53972e-17 	1.10497 	-0.000314191 	0
0.823437 	0.99999 	3.6785e-17 	1.10712 	-0.000437864 	0
0.826562 	0.99999 	3.50503e-17 	1.1092 	-0.000420983 	0
0.829687 	0.99999 	3.33156e-17 	1.11152 	-0.00029364 	0
0.832812 	0.99999 	3.36625e-17 	1.11426 	-6.42181e-05 	0
0.835937 	0.99999 	3.40095e-17 	1.11735 	0.000116218 	0
0.839062 	0.99999 	3.57442e-17 	1.1208 	0.000320394 	0
0.842187 	0.99999 	3.60911e-17 	1.12435 	0.00055105 	0
0.845312 	0.99999 	3.47034e-17 	1.12759 	0.000865052 	0
0.848437 	0.99999 	3.47034e-17 	1.13125 	0.00103348 	0
0.851562 	0.99999 	3.47034e-17 	1.13525 	0.00126701 	0
0.854687 	0.99999 	3.47034e-17 	1.13982 	0.00172888 	0
0.857812 	0.99999 	3.47034e-17 	1.14532 	0.00233708 	0
0.860937 	0.99999 	3.60911e-17 	1.15193 	0.00303812 	0
0.864062 	0.99999 	3.88667e-17 	1.15964 	0.0035872 	0
0.867187 	0.99999 	4.02545e-17 	1.16812 	0.00381341 	0
0.870312 	0.99999 	4.02545e-17 	1.17702 	0.003633 	0
0.873437 	0.99999 	3.85197e-17 	1.18592 	0.00314788 	0
0.876562 	0.99999 	3.6785e-17 	1.19438 	0.00262201 	0
0.879687 	0.99999 	3.50503e-17 	1.20202 	0.00165745 	0
0.882812 	0.99999 	3.47034e-17 	1.20843 	0.000460692 	0
0.885937 	0.99999 	3.74789e-17 	1.21389 	-0.000437288 	0
0.889062 	0.99999 	3.88667e-17 	1.21915 	-0.00073239 	0
0.892187 	0.99999 	3.88667e-17 	1.22515 	-0.000690813 	0
0.895312 	0.99999 	3.7132e-17 	1.23072 	-0.000602626 	0
0.898437 	0.99999 	3.53972e-17 	1.23508 	-0.000311218 	0
0.901562 	0.99999 	3.6785e-17 	1.2392 	0.000124181 	0
0.904687 	0.99999 	3.81728e-17 	1.24326 	0.000691282 	0
0.907812 	0.99999 	3.81728e-17 	1.24712 	0.00124884 	0
0.910937 	0.99999 	3.81728e-17 	1.25072 	0.00172943 	0
0.914062 	0.99999 	3.99075e-17 	1.25422 	0.00210176 	0
0.917187 	0.99999 	4.16422e-17 	1.25738 	0.00236488 	0
0.920312 	0.99999 	4.16422e-17 	1.26009 	0.00214529 	0
0.923437 	0.99999 	4.16422e-17 	1.26265 	0.00137758 	0
0.926562 	0.99999 	3.99075e-17 	1.26592 	0.000370018 	0
0.929687 	0.99999 	3.81728e-17 	1.27005 	-0.000262018 	0
0.932812 	0.99999 	4.12953e-17 	1.27457 	-0.000505944 	0
0.935937 	0.99999 	4.44178e-17 	1.27983 	-0.000603689 	0
0.939062 	0.99999 	4.44178e-17 	1.28609 	-0.000342599 	0
0.942187 	0.99999 	4.26831e-17 	1.29309 	0.000260262 	0
0.945312 	0.99999 	3.95606e-17 	1.30035 	0.000973561 	0
0.948437 	0.99999 	3.81728e-17 	1.30774 	0.00156222 	0
0.951562 	0.99999 	3.81728e-17 	1.31536 	0.00192386 	0
0.954687 	0.99999 	3.81728e-17 	1.32304 	0.0021577 	0
0.957812 	0.99999 	3.95606e-17 	1.33052 	0.00222689 	0
0.960937 	0.99999 	4.23361e-17 	1.33755 	0.00227619 	0
0.964062 	0.99999 	4.19892e-17 	1.34434 	0.00228873 	0
0.967187 	0.99999 	4.3377e-17 	1.35098 	0.00236001 	0
0.970312 	0.99999 	4.64995e-17 	1.35634 	0.0026695 	0
0.973437 	0.99999 	4.78872e-17 	1.36062 	0.00253939 	0
0.976562 	0.99999 	4.9275e-17 	1.36419 	0.00158708 	0
0.979687 	0.99999 	4.75403e-17 	1.36698 	2.98581e-05 	0
0.982812 	0.99999 	4.58056e-17 	1.3702 	-0.00140496 	0
0.985937 	0.99999 	4.58056e-17 	1.374 	-0.00209642 	0
0.989062 	0.99999 	4.58056e-17 	1.37834 	-0.00230942 	0
0.992187 	0.99999 	4.58056e-17 	1.38337 	-0.00233953 	0
0.995312 	0.99999 	4.58056e-17 	1.38943 	-0.00200988 	0
0.998437 	0.99999 	4.58056e-17 	1.39605 	-0.00112176 	0
1.00156 	0.99999 	4.61525e-17 	1.40197 	5.22448e-05 	0
1.00469 	0.99999 	4.64995e-17 	1.40722 	0.000985777 	0
1.00781 	0.99999 	4.47647e-17 	1.41192 	0.00174958 	0
1.01094 	0.99999 	4.303e-17 	1.41591 	0.00229995 	0
1.01406 	0.99999 	4.303e-17 	1.41889 	0.0025579 	0
1.01719 	0.99999 	4.19892e-17 	1.42095 	0.00240883 	0
1.02031 	0.99999 	4.09484e-17 	1.42305 	0.00173175 	0
1.02344 	0.99999 	4.09484e-17 	1.42654 	0.000759068 	0
1.02656 	0.99999 	4.09484e-17 	1.43102 	0.000201678 	0
1.02969 	0.99999 	4.23361e-17 	1.43569 	-8.45903e-05 	0
1.03281 	0.99999 	4.40709e-17 	1.44088 	-0.000307101 	0
1.03594 	0.99999 	4.75403e-17 	1.4467 	-0.000422159 	0
1.03906 	0.99999 	5.06628e-17 	1.45274 	-0.000542629 	0
1.04219 	0.99999 	5.06628e-17 	1.4586 	-0.000830039 	0
1.04531 	0.99999 	5.06628e-17 	1.4642 	-0.00116909 	0
1.04844 	0.99999 	4.9275e-17 	1.46995 	-0.00127126 	0
1.05156 	0.99999 	4.78872e-17 	1.4767 	-0.000794876 	0
1.05469 	0.99999 	4.64995e-17 	1.48489 	0.00046614 	0
1.05781 	0.99999 	4.37239e-17 	1.49314 	0.00204001 	0
1.06094 	0.99999 	4.40709e-17 	1.4988 	0.00293547 	0
1.06406 	0.99999 	4.58056e-17 	1.50358 	0.00316051 	0
1.06719 	0.99999 	4.58056e-17 	1.50777 	0.00343683 	0
1.07031 	0.99999 	4.58056e-17 	1.50965 	0.0034043 	0
1.07344 	0.99999 	4.40709e-17 	1.50921 	0.00207874 	0
1.07656 	0.99999 	4.23361e-17 	1.50999 	-0.000316637 	0
1.07969 	0.99999 	4.303e-17 	1.5137 	-0.00205402 	0
1.08281 	0.99999 	4.37239e-17 	1.5188 	-0.00267654 	0
1.08594 	0.99999 	4.37239e-17 	1.52466 	-0.00289736 	0
1.08906 	0.99999 	4.37239e-17 	1.53239 	-0.00304709 	0
1.09219 	0.99999 	4.37239e-17 	1.54137 	-0.00289542 	0
1.09531 	0.99999 	4.37239e-17 	1.54886 	-0.00210506 	0
1.09844 	0.99999 	4.37239e-17 	1.55458 	-0.000941614 	0
1.10156 	0.99999 	4.51117e-17 	1.55966 	0.000167702 	0
1.10469 	0.99999 	4.64995e-17 	1.56435 	0.00115279 	0
1.10781 	0.99999 	4.78872e-17 	1.56761 	0.0018785 	0
1.11094 	0.99999 	4.82342e-17 	1.56906 	0.00220835 	0
1.11406 	0.99999 	4.71934e-17 	1.57012 	0.00200712 	0
1.11719 	0.99999 	4.71934e-17 	1.57234 	0.00113753 	0
1.12031 	0.99999 	4.71934e-17 	1.57609 	-7.43892e-06 	0
1.12344 	0.99999 	4.54586e-17 	1.58063 	-0.000807004 	0
1.12656 	0.99999 	4.37239e-17 	1.58534 	-0.00126659 	0
1.12969 	0.99999 	4.37239e-17 	1.59051 	-0.00160252 	0
1.13281 	0.99999 	4.37239e-17 	1.59653 	-0.00177947 	0
1.13594 	0.99999 	4.37239e-17 	1.60316 	-0.00190696 	0
1.13906 	0.99999 	4.37239e-17 	1.60979 	-0.00183225 	0
1.14219 	0.99999 	4.37239e-17 	1.61636 	-0.00132587 	0
1.14531 	0.99999 	4.51117e-17 	1.62249 	-0.000334627 	0
1.14844 	0.99999 	4.64995e-17 	1.6277 	0.000608518 	0
1.15156 	0.99999 	4.64995e-17 	1.63201 	0.000922298 	0
1.15469 	0.99999 	4.64995e-17 	1.6361 	0.000941791 	0
1.15781 	0.99999 	4.68464e-17 	1.63969 	0.000960638 	0
1.16094 	0.99999 	4.58056e-17 	1.6429 	0.000670714 	0
1.16406 	0.99999 	4.44178e-17 	1.64623 	-0.000108949 	0
1.16719 	0.99999 	4.44178e-17 	1.65079 	-0.00103341 	0
1.17031 	0.99999 	4.44178e-17 	1.656 	-0.00160092 	0
1.17344 	0.99999 	4.303e-17 	1.66112 	-0.00190716 	0
1.17656 	0.99999 	4.303e-17 	1.66626 	-0.00219847 	0
1.17969 	0.99999 	4.26831e-17 	1.67162 	-0.00244471 	0
1.18281 	0.99999 	3.95606e-17 	1.67693 	-0.00248679 	0
1.18594 	0.99999 	3.78259e-17 	1.68225 	-0.00203406 	0
1.18906 	0.99999 	3.64381e-17 	1.68742 	-0.00121521 	0
1.19219 	0.99999 	3.36625e-17 	1.6923 	-0.000421008 	0
1.19531 	0.99999 	3.19278e-17 	1.69653 	0.000198955 	0
1.19844 	0.99999 	3.50503e-17 	1.69974 	0.000488194 	0
1.20156 	0.99999 	3.81728e-17 	1.70227 	0.000500881 	0
1.20469 	0.99999 	3.81728e-17 	1.7046 	2.11649e-05 	0
1.20781 	0.99999 	3.64381e-17 	1.70706 	-0.000652087 	0
1.21094 	0.99999 	3.43564e-17 	1.71012 	-0.00120517 	0
1.21406 	0.99999 	3.40095e-17 	1.71399 	-0.00155437 	0
1.21719 	0.99999 	3.40095e-17 	1.71855 	-0.00171471 	0
1.22031 	0.99999 	3.57442e-17 	1.72318 	-0.00182364 	0
1.22344 	0.99999 	3.74789e-17 	1.72782 	-0.00197182 	0
1.22656 	0.99999 	3.74789e-17 	1.73284 	-0.00200696 	0
1.22969 	0.99999 	3.74789e-17 	1.73818 	-0.0016925 	0
1.23281 	0.99999 	3.74789e-17 	1.74344 	-0.00108532 	0
1.23594 	0.99999 	3.60911e-17 	1.74848 	-0.000589353 	0
1.23906 	0.99999 	3.47034e-17 	1.75297 	-0.000449686 	0
1.24219 	0.99999 	3.29686e-17 	1.757 	-0.000510704 	0
1.24531 	0.99999 	3.29686e-17 	1.76088 	-0.000735278 	0
1.24844 	0.99999 	3.47034e-17 	1.76426 	-0.00108343 	0
1.25156 	0.99999 	3.47034e-17 	1.76716 	-0.00140011 	0
1.25469 	0.99999 	3.47034e-17 	1.76999 	-0.00156271 	0
1.25781 	0.99999 	3.47034e-17 	1.77325 	-0.00153387 	0
1.26094 	0.99999 	3.47034e-17 	1.77692 	-0.00133347 	0
1.26406 	0.99999 	3.47034e-17 	1.78092 	-0.00099875 	0
1.26719 	0.99999 	3.50503e-17 	1.7851 	-0.000639319 	0
1.27031 	0.99999 	3.53972e-17 	1.78927 	-0.000450539 	0
1.27344 	0.99999 	3.36625e-17 	1.79348 	-0.00048897 	0
1.27656 	0.99999 	3.01931e-17 	1.79799 	-0.000687926 	0
1.27969 	0.99999 	2.98461e-17 	1.80268 	-0.000990005 	0
1.28281 	0.99999 	2.98461e-17 	1.80705 	-0.00146886 	0
1.28594 	0.99999 	2.84583e-17 	1.81093 	-0.00197453 	0
1.28906 	0.99999 	2.84583e-17 	1.81455 	-0.00242074 	0
1.29219 	0.99999 	2.84583e-17 	1.81842 	-0.00286043 	0
1.29531 	0.99999 	2.98461e-17 	1.82311 	-0.00326007 	0
1.29844 	0.99999 	3.12339e-17 	1.82805 	-0.00346217 	0
1.30156 	0.99999 	3.12339e-17 	1.83307 	-0.00288586 	0
1.30469 	0.99999 	3.29686e-17 	1.83808 	-0.00166026 	0
1.30781 	0.99999 	3.29686e-17 	1.84292 	-0.000821432 	0
1.31094 	0.99999 	3.12339e-17 	1.84693 	-5.85801e-05 	0
1.31406 	0.99999 	3.15808e-17 	1.84952 	0.000363886 	0
1.31719 	0.99999 	3.19278e-17 	1.85097 	0.000278939 	0
1.32031 	0.99999 	3.054e-17 	1.85159 	-0.000930515 	0
1.32344 	0.99999 	2.91522e-17 	1.85197 	-0.00275473 	0
1.32656 	0.99999 	2.77645e-17 	1.85406 	-0.00411301 	0
1.32969 	0.99999 	2.63767e-17 	1.85762 	-0.00471026 	0
1.33281 	0.99999 	2.63767e-17 	1.86152 	-0.00499831 	0
1.33594 	0.99999 	2.63767e-17 	1.86699 	-0.00534085 	0
1.33906 	0.99999 	2.63767e-17 	1.87645 	-0.00511539 	0
1.34219 	0.99999 	2.77645e-17 	1.88622 	-0.0029297 	0
1.34531 	0.99999 	2.94992e-17 	1.89293 	-8.84024e-05 	0
1.34844 	0.99999 	2.98461e-17 	1.89689 	0.0013306 	0
1.35156 	0.99999 	2.98461e-17 	1.90078 	0.00209139 	0
1.35469 	0.99999 	2.98461e-17 	1.90238 	0.002516 	0
1.35781 	0.99999 	2.98461e-17 	1.90078 	0.00231906 	0
1.36094 	0.99999 	2.98461e-17 	1.89866 	0.000685189 	0
1.36406 	0.99999 	2.98461e-17 	1.89823 	-0.00171947 	0
1.36719 	0.99999 	2.98461e-17 	1.90016 	-0.00364413 	0
1.37031 	0.99999 	2.98461e-17 	1.90393 	-0.0047502 	0
1.37344 	0.99999 	2.98461e-17 	1.90878 	-0.00514116 	0
1.37656 	0.99999 	2.88053e-17 	1.91449 	-0.0054306 	0
1.37969 	0.99999 	2.77645e-17 	1.92212 	-0.00543292 	0
1.38281 	0.99999 	2.77645e-17 	1.92998 	-0.00415191 	0
1.38594 	0.99999 	2.77645e-17 	1.93635 	-0.00235436 	0
1.38906 	0.99999 	2.77645e-17 	1.94209 	-0.00110446 	0
1.39219 	0.99999 	2.74175e-17 	1.94755 	-0.000267071 	0
1.39531 	0.99999 	2.70706e-17 	1.95182 	0.000495859 	0
1.39844 	0.99999 	2.70706e-17 	1.95403 	0.000791401 	0
1.40156 	0.99999 	2.70706e-17 	1.95448 	0.000403532 	0
1.40469 	0.99999 	2.70706e-17 	1.95391 	-0.00107002 	0
1.40781 	0.99999 	2.70706e-17 	1.95425 	-0.00247709 	0
1.41094 	0.99999 	2.70706e-17 	1.95729 	-0.00310778 	0
1.41406 	0.99999 	2.70706e-17 	1.962 	-0.00326374 	0
1.41719 	0.99999 	2.70706e-17 	1.96669 	-0.00318101 	0
1.42031 	0.99999 	2.70706e-17 	1.97184 	-0.00264776 	0
1.42344 	0.99999 	2.4295e-17 	1.97647 	-0.00231655 	0
1.42656 	0.99999 	2.15195e-17 	1.9804 	-0.0020427 	0
1.42969 	0.99999 	2.15195e-17 	1.98128 	-0.00187201 	0
1.43281 	0.99999 	2.15195e-17 	1.97986 	-0.0022291 	0
1.43594 	0.99999 	2.15195e-17 	1.98147 	-0.00267388 	0
1.43906 	0.99999 	2.15195e-17 	1.98534 	-0.00284709 	0
1.44219 	0.99999 	2.15195e-17 	1.98922 	-0.00307189 	0
1.44531 	0.99999 	2.15195e-17 	1.99455 	-0.00333886 	0
1.44844 	0.99999 	2.15195e-17 	2.00214 	-0.00273627 	0
1.45156 	0.99999 	2.15195e-17 	2.00744 	-0.00173234 	0
1.45469 	0.99999 	2.04786e-17 	2.01108 	-0.00154553 	0
1.45781 	0.99999 	1.94378e-17 	2.01445 	-0.00142579 	0
1.46094 	0.99999 	1.94378e-17 	2.01597 	-0.00151366 	0
1.46406 	0.99999 	1.94378e-17 	2.01547 	-0.00230485 	0
1.46719 	0.99999 	1.94378e-17 	2.01575 	-0.00320444 	0
1.47031 	0.99999 	1.94378e-17 	2.01865 	-0.00369957 	0
1.47344 	0.99999 	1.94378e-17 	2.02227 	-0.00398333 	0
1.47656 	0.99999 	1.94378e-17 	2.02672 	-0.00341076 	0
1.47969 	0.99999 	1.94378e-17 	2.03114 	-0.00204961 	0
1.48281 	0.99999 	1.94378e-17 	2.03592 	-0.00130645 	0
1.48594 	0.99999 	1.94378e-17 	2.04021 	-0.000431392 	0
1.48906 	0.99999 	1.94378e-17 	2.04258 	0.000253949 	0
1.49219 	0.99999 	1.94378e-17 	2.04336 	0.00040794 	0
1.49531 	0.99999 	1.94378e-17 	2.04418 	-0.000284087 	0
1.49844 	0.99999 	1.94378e-17 	2.04505 	-0.00191029 	0
1.50156 	0.99999 	1.66622e-17 	2.04641 	-0.00342194 	0
1.50469 	0.99999 	1.38867e-17 	2.0494 	-0.00441621 	0
1.50781 	0.99999 	1.38867e-17 	2.05397 	-0.00479196 	0
1.51094 	0.99999 	1.38867e-17 	2.05877 	-0.00511745 	0
1.51406 	0.99999 	1.38867e-17 	2.06528 	-0.00511246 	0
1.51719 	0.99999 	1.38867e-17 	2.07221 	-0.00345419 	0
1.52031 	0.99999 	1.38867e-17 	2.07676 	-0.00207378 	0
1.52344 	0.99999 	1.38867e-17 	2.08167 	-0.00129081 	0
1.52656 	0.99999 	1.38867e-17 	2.08522 	-0.00049361 	0
1.52969 	0.99999 	1.38867e-17 	2.08517 	-0.000249811 	0
1.53281 	0.99999 	1.11111e-17 	2.08286 	-0.00109367 	0
1.53594 	0.99999 	8.33555e-18 	2.08215 	-0.00247837 	0
1.53906 	0.99999 	8.33555e-18 	2.08475 	-0.00314726 	0
1.54219 	0.99999 	8.33555e-18 	2.0889 	-0.00335976 	0
1.54531 	0.99999 	8.33555e-18 	2.09299 	-0.0035244 	0
1.54844 	0.99999 	8.33555e-18 	2.09809 	-0.00343067 	0
1.55156 	0.99999 	9.72333e-18 	2.10311 	-0.00266505 	0
1.55469 	0.99999 	9.72333e-18 	2.10685 	-0.00224839 	0
1.55781 	0.99999 	6.94778e-18 	2.11022 	-0.0020161 	0
1.56094 	0.99999 	5.56e-18 	2.11125 	-0.00197015 	0
1.56406 	0.99999 	5.56e-18 	2.11011 	-0.00259908 	0
1.56719 	0.99999 	4.17222e-18 	2.11024 	-0.00380199 	0
1.57031 	0.99999 	4.17222e-18 	2.11247 	-0.00444129 	0
1.57344 	0.99999 	5.56e-18 	2.11529 	-0.00464817 	0
1.57656 	0.99999 	4.17222e-18 	2.11896 	-0.00491311 	0
1.57969 	0.99999 	4.86611e-18 	2.12641 	-0.00491102 	0
1.58281 	0.99999 	6.94778e-18 	2.13289 	-0.00319657 	0
1.58594 	0.99999 	8.33555e-18 	2.13605 	-0.00177236 	0
1.58906 	0.99999 	9.72333e-18 	2.13987 	-0.000601875 	0
1.59219 	0.99999 	9.72333e-18 	2.14277 	0.000238779 	0
1.59531 	0.99999 	1.14581e-17 	2.1428 	0.000334777 	0
1.59844 	0.99999 	1.00703e-17 	2.1418 	-0.000504778 	0
1.60156 	0.99999 	6.94778e-18 	2.14274 	-0.00203593 	0
1.60469 	0.99999 	2.09055e-18 	2.14512 	-0.00334454 	0
1.60781 	0.99999 	-2.76668e-18 	2.1482 	-0.00427583 	0
1.61094 	0.99999 	-6.85008e-19 	2.15213 	-0.00484592 	0
1.61406 	0.99999 	-2.07279e-18 	2.15712 	-0.0050968 	0
1.61719 	0.99999 	-6.93001e-18 	2.16229 	-0.00538159 	0
1.62031 	0.99999 	-1.17872e-17 	2.16818 	-0.0051667 	0
1.62344 	0.99999 	-1.52567e-17 	2.17254 	-0.0039024 	0
1.62656 	0.99999 	-1.52567e-17 	2.17654 	-0.00301845 	0
1.62969 	0.99999 	-1.52567e-17 	2.17984 	-0.0019697 	0
1.63281 	0.99999 	-1.52567e-17 	2.18078 	-0.00103482 	0
1.63594 	0.99999 	-1.38689e-17 	2.18014 	-0.000622138 	0
1.63906 	0.99999 	-1.42159e-17 	2.18042 	-0.000762029 	0
1.64219 	0.99999 	-1.45628e-17 	2.18207 	-0.00147632 	0
1.64531 	0.99999 	-1.3175e-17 	2.18391 	-0.002726 	0
1.64844 	0.99999 	-1.62975e-17 	2.18563 	-0.00392057 	0
1.65156 	0.99999 	-1.62975e-17 	2.18782 	-0.00473913 	0
1.65469 	0.99999 	-1.17872e-17 	2.19088 	-0.00525486 	0
1.65781 	0.99999 	-1.14403e-17 	2.19456 	-0.00557156 	0
1.66094 	0.99999 	-1.10933e-17 	2.19792 	-0.00587632 	0
1.66406 	0.99999 	-9.70557e-18 	2.20186 	-0.00516592 	0
1.66719 	0.99999 	-1.10933e-17 	2.20508 	-0.0036214 	0
1.67031 	0.99999 	-1.38689e-17 	2.20798 	-0.00230999 	0
1.67344 	0.99999 	-1.3175e-17 	2.21083 	-0.00107665 	0
1.67656 	0.99999 	-1.24811e-17 	2.21335 	-0.000356629 	0
1.67969 	0.99999 	-1.59506e-17 	2.21592 	-0.000158361 	0
1.68281 	0.99999 	-1.80322e-17 	2.21849 	-0.000318225 	0
1.68594 	0.99999 	-1.80322e-17 	2.22038 	-0.00115705 	0
1.68906 	0.99999 	-2.08078e-17 	2.22035 	-0.00301816 	0
1.69219 	0.99999 	-2.35834e-17 	2.21889 	-0.00503213 	0
1.69531 	0.99999 	-2.49711e-17 	2.21867 	-0.00629922 	0
1.69844 	0.99999 	-2.49711e-17 	2.22067 	-0.00669614 	0
1.70156 	0.99999 	-2.21956e-17 	2.22368 	-0.00684841 	0
1.70469 	0.99999 	-2.08078e-17 	2.22992 	-0.00619512 	0
1.70781 	0.99999 	-2.08078e-17 	2.23483 	-0.00392738 	0
1.71094 	0.99999 	-1.942e-17 	2.23792 	-0.00273278 	0
1.71406 	0.99999 	-1.80322e-17 	2.24146 	-0.00114425 	0
1.71719 	0.99999 	-1.80322e-17 	2.24327 	0.000109726 	0
1.72031 	0.99999 	-1.80322e-17 	2.24338 	0.000573611 	0
1.72344 	0.99999 	-1.66445e-17 	2.24339 	0.000153237 	0
1.72656 	0.99999 	-1.52567e-17 	2.24343 	-0.0014134 	0
1.72969 	0.99999 	-1.38689e-17 	2.24348 	-0.00320268 	0
1.73281 	0.99999 	-1.10933e-17 	2.24546 	-0.00433879 	0
1.73594 	0.99999 	-1.10933e-17 	2.24955 	-0.00477045 	0
1.73906 	0.99999 	-1.24811e-17 	2.2536 	-0.0050996 	0
1.74219 	0.99999 	-1.10933e-17 	2.25977 	-0.00516511 	0
1.74531 	0.99999 	-8.31779e-18 	2.26693 	-0.00337184 	0