/*--------------------------------*- C++ -*----------------------------------*\
  =========                 |
  \\      /  F ield         | OpenFOAM: The Open Source CFD Toolbox
   \\    /   O peration     | Website:  https://openfoam.org
    \\  /    A nd           | Version:  7
     \\/     M anipulation  |
\*---------------------------------------------------------------------------*/
FoamFile
{
    version     2.0;
    format      ascii;
    class       volVectorField;
    location    "0.1";
    object      U;
}
// * * * * * * * * * * * * * * * * * * * * * * * * * * * * * * * * * * * * * //

dimensions      [0 1 -1 0 0 0 0];

internalField   nonuniform List<vector> 
64512
(
(3 -2.01166e-17 0)
(3 2.07693e-17 0)
(3 -2.00934e-16 0)
(3 -5.10181e-16 0)
(3 -9.42774e-16 0)
(3 -8.18944e-16 0)
(3 -6.43959e-16 0)
(3 -2.42048e-16 0)
(3 -2.34603e-16 0)
(3 -5.59228e-16 0)
(3 -6.23746e-16 0)
(3 -6.49257e-16 0)
(3 -7.80911e-16 0)
(3 -2.93911e-16 0)
(3 1.10931e-16 0)
(3 -1.2526e-16 0)
(3 1.66624e-16 0)
(3 1.082e-16 0)
(3 -6.91818e-17 0)
(3 -2.3987e-16 0)
(3 -3.71936e-16 0)
(3 -2.94925e-16 0)
(3 1.10658e-16 0)
(3 1.01021e-16 0)
(3 -2.75982e-16 0)
(3 -6.83885e-16 0)
(3 -6.97089e-16 0)
(3 -5.10728e-16 0)
(3 -2.62293e-16 0)
(3 -6.36747e-16 0)
(3 -1.09096e-15 0)
(3 -1.4009e-15 0)
(3 -1.29934e-15 0)
(3 -7.89088e-16 0)
(3 -2.99262e-16 0)
(3 -2.5768e-16 0)
(3 -4.27279e-16 0)
(3 -1.12248e-16 0)
(3 4.31665e-16 0)
(3 1.23569e-16 0)
(3 -1.83859e-16 0)
(3 3.16266e-16 0)
(3 3.69294e-17 0)
(3 -1.59716e-16 0)
(3 -1.53567e-16 0)
(3 -3.0836e-16 0)
(3 7.00221e-17 0)
(3 5.58872e-16 0)
(3 4.4598e-16 0)
(3 -4.02987e-17 0)
(3 -5.33627e-16 0)
(3 -3.73172e-17 0)
(3 -3.70632e-16 0)
(3 -3.28833e-16 0)
(3 -3.18486e-16 0)
(3 -3.68944e-16 0)
(3 5.34098e-16 0)
(3 1.03678e-15 0)
(3 1.02163e-15 0)
(3 1.2159e-15 0)
(3 1.16864e-15 0)
(3 9.04671e-16 0)
(3 3.36244e-16 0)
(3 1.54593e-16 0)
(3 -6.3136e-17 0)
(3 1.09929e-16 0)
(3 5.2292e-16 0)
(3 7.54534e-16 0)
(3 7.24394e-16 0)
(3 1.03291e-15 0)
(3 2.30163e-15 0)
(3 -5.60929e-16 0)
(3 -1.33579e-15 0)
(3 -1.89571e-15 0)
(3 -1.04179e-15 0)
(3 3.02564e-16 0)
(3 1.0852e-15 0)
(3 5.42345e-16 0)
(3 2.95748e-16 0)
(3 -9.0699e-17 0)
(3 4.80899e-18 0)
(2.3717 -1.05965e-08 0)
(0.301096 -8.90365e-08 0)
(0.0378007 -7.01777e-07 0)
(0.00415255 -1.1484e-06 0)
(0.000835873 -7.45365e-07 0)
(0.000378096 -4.36355e-07 0)
(0.00147433 -2.31138e-07 0)
(0.00125041 -5.85162e-08 0)
(-0.000369207 4.19447e-07 0)
(-0.00332565 1.31929e-06 0)
(-0.00306406 2.19614e-06 0)
(-0.0026669 3.52717e-06 0)
(-0.00190046 4.20029e-06 0)
(-0.00166406 4.457e-06 0)
(-0.000644571 4.56099e-06 0)
(3 -3.60776e-17 0)
(3 -1.97384e-16 0)
(3 -1.02098e-15 0)
(3 -1.90698e-15 0)
(3 -2.59772e-15 0)
(3 -1.92178e-15 0)
(3 -1.30711e-15 0)
(3 -7.53756e-16 0)
(3 -6.51541e-16 0)
(3 -8.23836e-16 0)
(3 -3.96133e-16 0)
(3 -7.88856e-16 0)
(3 -1.67715e-15 0)
(3 -1.40633e-15 0)
(3 2.35475e-16 0)
(3 3.37903e-16 0)
(3 1.28603e-16 0)
(3 1.87755e-16 0)
(3 5.51321e-16 0)
(3 4.63669e-16 0)
(3 -9.48167e-17 0)
(3 -4.43989e-16 0)
(3 -2.70888e-16 0)
(3 -7.4821e-17 0)
(3 -6.57634e-18 0)
(3 -4.49583e-16 0)
(3 -5.65626e-16 0)
(3 -1.13072e-15 0)
(3 -7.39427e-16 0)
(3 -1.95395e-15 0)
(3 -3.53214e-15 0)
(3 -3.70005e-15 0)
(3 -3.08579e-15 0)
(3 -2.47874e-15 0)
(3 -2.27773e-15 0)
(3 -1.44509e-15 0)
(3 -1.27357e-15 0)
(3 -2.95392e-16 0)
(3 1.48841e-16 0)
(3 -1.52234e-15 0)
(3 -1.9764e-15 0)
(3 -1.04152e-15 0)
(3 -8.91206e-16 0)
(3 -7.06686e-16 0)
(3 -3.48425e-16 0)
(3 -8.00863e-17 0)
(3 3.00239e-16 0)
(3 1.20654e-15 0)
(3 6.87905e-16 0)
(3 -5.11691e-16 0)
(3 -1.55757e-15 0)
(3 -4.4017e-16 0)
(3 -7.12989e-16 0)
(3 -8.0674e-16 0)
(3 -7.59635e-16 0)
(3 -8.58394e-16 0)
(3 3.21283e-16 0)
(3 2.61629e-15 0)
(3 3.09914e-15 0)
(3 3.43731e-15 0)
(3 2.65921e-15 0)
(3 1.7537e-15 0)
(3 5.26089e-16 0)
(3 1.63761e-16 0)
(3 -4.4688e-16 0)
(3 1.53102e-16 0)
(3 7.5177e-16 0)
(3 1.08406e-15 0)
(3 1.86114e-15 0)
(3 1.95206e-15 0)
(3 2.12291e-15 0)
(3 -7.91645e-16 0)
(3 -3.06711e-15 0)
(3 -3.12672e-15 0)
(3 -3.16498e-15 0)
(3 -1.43099e-15 0)
(3 -4.90078e-16 0)
(3 -8.60463e-16 0)
(3 -1.17861e-15 0)
(3 -2.10175e-15 0)
(3 -1.48122e-15 0)
(2.3717 -9.92631e-07 0)
(0.301092 -3.50214e-06 0)
(0.0378007 -9.79531e-06 0)
(0.00415406 -4.77478e-06 0)
(0.000836732 -1.76378e-06 0)
(0.000378708 2.95476e-07 0)
(0.00147642 5.82902e-06 0)
(0.0012598 2.82442e-05 0)
(-0.000343813 9.28607e-05 0)
(-0.00328492 0.000185261 0)
(-0.00304663 0.000269915 0)
(-0.00263241 0.000375023 0)
(-0.0018833 0.000431284 0)
(-0.00165823 0.000454873 0)
(-0.00064391 0.000462714 0)
(3 3.7647e-17 0)
(3 -1.18051e-18 0)
(3 -3.02742e-16 0)
(3 -4.85183e-16 0)
(3 -6.4938e-16 0)
(3 -1.19434e-15 0)
(3 -4.68888e-16 0)
(3 -7.002e-16 0)
(3 -7.78528e-16 0)
(3 -7.83083e-16 0)
(3 -8.91102e-16 0)
(3 -8.83595e-16 0)
(3 -4.39962e-16 0)
(3 -6.37658e-16 0)
(3 -3.50694e-16 0)
(3 3.09509e-16 0)
(3 6.39252e-16 0)
(3 5.92619e-16 0)
(3 1.26681e-15 0)
(3 9.36062e-16 0)
(3 3.78287e-16 0)
(3 -6.27517e-18 0)
(3 -2.49055e-16 0)
(3 6.11322e-17 0)
(3 1.94218e-17 0)
(3 -2.56719e-16 0)
(3 -4.15117e-16 0)
(3 -4.24004e-16 0)
(3 -4.89941e-16 0)
(3 -1.32457e-15 0)
(3 -1.75474e-15 0)
(3 -1.64179e-15 0)
(3 -2.21138e-15 0)
(3 -2.14421e-15 0)
(3 -2.31484e-15 0)
(3 -1.25231e-15 0)
(3 -7.32768e-16 0)
(3 -2.02406e-15 0)
(3 -3.30223e-15 0)
(3 -3.93016e-15 0)
(3 -3.08637e-15 0)
(3 -3.37833e-15 0)
(3 -2.34793e-15 0)
(3 -1.58995e-15 0)
(3 -8.96807e-16 0)
(3 6.02015e-17 0)
(3 1.06139e-15 0)
(3 8.59131e-16 0)
(3 4.64397e-16 0)
(3 -1.55491e-15 0)
(3 -1.72548e-15 0)
(3 -1.53144e-15 0)
(3 -1.03904e-15 0)
(3 -2.27774e-16 0)
(3 -2.34462e-17 0)
(3 4.28582e-16 0)
(3 1.10272e-15 0)
(3 1.61396e-15 0)
(3 2.36009e-15 0)
(3 2.52612e-15 0)
(3 2.67509e-15 0)
(3 2.20801e-15 0)
(3 2.04268e-15 0)
(3 8.56909e-18 0)
(3 -2.22523e-16 0)
(3 4.97992e-16 0)
(3 6.94564e-16 0)
(3 1.53174e-15 0)
(3 2.65803e-15 0)
(3 2.9329e-15 0)
(3 2.33404e-15 0)
(3 -9.38689e-16 0)
(3 -3.16406e-15 0)
(3 -4.44973e-15 0)
(3 -4.24299e-15 0)
(3 -2.73221e-15 0)
(3 -1.54724e-15 0)
(3 -6.36837e-16 0)
(3 -9.19947e-16 0)
(3 -2.25957e-15 0)
(3 -2.46367e-15 0)
(2.37166 -1.46492e-05 0)
(0.301076 -4.19586e-05 0)
(0.0378055 -2.40668e-05 0)
(0.00416279 -2.1818e-06 0)
(0.000859133 2.87506e-05 0)
(0.00041675 0.000125956 0)
(0.00162704 0.000384771 0)
(0.00158354 0.00102212 0)
(0.000177191 0.00211242 0)
(-0.00260935 0.00319019 0)
(-0.00275306 0.00422975 0)
(-0.00217129 0.00517349 0)
(-0.00160584 0.00579672 0)
(-0.00155922 0.00604087 0)
(-0.000628411 0.00612947 0)
(3 4.1161e-17 0)
(3 2.30032e-16 0)
(3 5.3724e-16 0)
(3 1.07432e-15 0)
(3 1.37158e-15 0)
(3 3.22104e-16 0)
(3 7.55564e-17 0)
(3 1.65106e-16 0)
(3 -1.08771e-17 0)
(3 -4.82985e-16 0)
(3 -9.32156e-16 0)
(3 -5.88775e-16 0)
(3 1.23201e-16 0)
(3 9.91178e-17 0)
(3 -4.9237e-16 0)
(3 -5.50342e-16 0)
(3 5.24902e-16 0)
(3 1.13522e-15 0)
(3 7.99384e-16 0)
(3 -1.14357e-16 0)
(3 3.32885e-16 0)
(3 8.54937e-16 0)
(3 6.42412e-16 0)
(3 1.9418e-16 0)
(3 -6.47417e-16 0)
(3 -1.01803e-15 0)
(3 -1.07901e-15 0)
(3 -3.38365e-16 0)
(3 -6.30488e-16 0)
(3 -6.59025e-16 0)
(3 -1.01724e-15 0)
(3 -2.12697e-15 0)
(3 -1.93116e-15 0)
(3 -2.00498e-15 0)
(3 -1.8332e-15 0)
(3 -1.35463e-15 0)
(3 -6.86318e-16 0)
(3 -1.38285e-15 0)
(3 -2.42128e-15 0)
(3 -2.566e-15 0)
(3 -2.62165e-15 0)
(3 -2.78534e-15 0)
(3 -2.77973e-15 0)
(3 -1.8124e-15 0)
(3 -1.10071e-15 0)
(3 -1.00268e-16 0)
(3 -1.8959e-16 0)
(3 -5.23925e-16 0)
(3 -4.61969e-16 0)
(3 -1.68385e-15 0)
(3 -1.77942e-15 0)
(3 -1.50788e-15 0)
(3 -1.35067e-15 0)
(3 -7.27673e-16 0)
(3 6.17847e-17 0)
(3 9.68941e-16 0)
(3 1.22954e-15 0)
(3 9.78944e-16 0)
(3 1.06932e-15 0)
(3 3.29337e-16 0)
(3 3.41506e-16 0)
(3 -6.47995e-18 0)
(3 4.7175e-17 0)
(3 3.09725e-16 0)
(3 9.65985e-16 0)
(3 1.46842e-15 0)
(3 1.88941e-15 0)
(3 2.20402e-15 0)
(3 2.54009e-15 0)
(3 2.67181e-15 0)
(3 1.47764e-15 0)
(3 -2.56405e-16 0)
(3 -2.15088e-15 0)
(3 -3.40936e-15 0)
(3 -2.84107e-15 0)
(3 -1.64583e-15 0)
(3 -8.18835e-16 0)
(3 -8.34387e-16 0)
(3 -1.76183e-15 0)
(3 -3.12395e-15 0)
(3 -3.44364e-15 0)
(2.37141 -0.000111458 0)
(0.301011 -0.000214708 0)
(0.0378554 -1.3325e-05 0)
(0.00435219 0.000254366 0)
(0.00137286 0.000844632 0)
(0.000914456 0.00219019 0)
(0.00346059 0.00448819 0)
(0.00384346 0.00818069 0)
(0.00281743 0.0123438 0)
(0.000129758 0.0160114 0)
(-0.001564 0.0194635 0)
(-0.000269918 0.0218771 0)
(-0.000439834 0.0237263 0)
(-0.00110972 0.0245879 0)
(-0.000536365 0.0248525 0)
(3 3.16328e-17 0)
(3 -9.90902e-17 0)
(3 -1.54235e-16 0)
(3 -1.29606e-16 0)
(3 2.94179e-16 0)
(3 1.36768e-15 0)
(3 5.53751e-16 0)
(3 3.86556e-16 0)
(3 -1.75112e-16 0)
(3 -4.75291e-16 0)
(3 -6.38479e-16 0)
(3 -7.91396e-16 0)
(3 -3.41592e-16 0)
(3 -2.70936e-16 0)
(3 -8.48225e-16 0)
(3 -1.25838e-15 0)
(3 -1.30309e-15 0)
(3 2.61492e-17 0)
(3 1.84991e-16 0)
(3 3.36189e-16 0)
(3 1.30937e-15 0)
(3 1.20873e-15 0)
(3 6.73089e-16 0)
(3 -1.77728e-16 0)
(3 -9.88712e-16 0)
(3 -1.54582e-15 0)
(3 -1.27689e-15 0)
(3 -1.22842e-15 0)
(3 -1.08291e-15 0)
(3 -1.35815e-15 0)
(3 -1.32142e-15 0)
(3 -1.82106e-15 0)
(3 -1.25661e-15 0)
(3 -1.89807e-15 0)
(3 -1.71858e-15 0)
(3 -9.54943e-16 0)
(3 -8.40279e-16 0)
(3 -9.635e-16 0)
(3 -6.92379e-16 0)
(3 -8.24726e-16 0)
(3 -1.34086e-15 0)
(3 -1.12043e-15 0)
(3 -8.10982e-16 0)
(3 -4.50505e-16 0)
(3 5.10707e-16 0)
(3 8.21953e-16 0)
(3 9.57594e-16 0)
(3 7.36659e-16 0)
(3 -2.20243e-16 0)
(3 -1.09577e-15 0)
(3 -1.48019e-15 0)
(3 -1.57687e-15 0)
(3 -1.34019e-15 0)
(3 -1.00204e-15 0)
(3 1.35099e-16 0)
(3 3.17927e-16 0)
(3 -6.56907e-16 0)
(3 7.50161e-16 0)
(3 9.31321e-16 0)
(3 1.02524e-15 0)
(3 1.30627e-16 0)
(3 -9.61146e-16 0)
(3 -1.85115e-15 0)
(3 4.09644e-16 0)
(3 2.03538e-15 0)
(3 2.59405e-15 0)
(3 2.26831e-15 0)
(3 1.02888e-15 0)
(3 1.49321e-15 0)
(3 2.43042e-15 0)
(3 2.42878e-15 0)
(3 8.65024e-16 0)
(3 -2.10483e-16 0)
(3 -9.25964e-16 0)
(3 -7.22805e-16 0)
(3 6.01475e-18 0)
(3 2.38613e-16 0)
(3 -8.94201e-17 0)
(3 -1.32538e-15 0)
(3 -1.61857e-15 0)
(3 -1.73843e-15 0)
(2.37021 -0.000450957 0)
(0.300939 -0.000298333 0)
(0.0384925 0.000794069 0)
(0.00595658 0.00294496 0)
(0.00448327 0.00610744 0)
(0.00366616 0.0115285 0)
(0.0090233 0.0176129 0)
(0.00944771 0.0252931 0)
(0.00768152 0.0322692 0)
(0.00527385 0.0384803 0)
(0.000964613 0.0434774 0)
(0.00312711 0.0469081 0)
(0.0016458 0.0493166 0)
(-9.79218e-05 0.0507108 0)
(-0.000206386 0.0512925 0)
(3 -5.60087e-17 0)
(3 -2.63315e-17 0)
(3 -1.29586e-16 0)
(3 1.37166e-16 0)
(3 -6.4052e-18 0)
(3 1.92067e-16 0)
(3 4.91837e-16 0)
(3 4.90818e-16 0)
(3 1.79266e-17 0)
(3 1.55154e-17 0)
(3 1.61025e-16 0)
(3 -2.04984e-16 0)
(3 -1.07252e-16 0)
(3 7.20813e-17 0)
(3 -1.54879e-16 0)
(3 -1.34871e-15 0)
(3 -2.06205e-15 0)
(3 -1.54298e-15 0)
(3 -6.46615e-16 0)
(3 5.67906e-16 0)
(3 7.06598e-16 0)
(3 6.33772e-16 0)
(3 7.33088e-16 0)
(3 2.40973e-16 0)
(3 1.07046e-16 0)
(3 3.00153e-16 0)
(3 1.8706e-16 0)
(3 -4.43582e-17 0)
(3 -2.5987e-16 0)
(3 -4.6884e-16 0)
(3 -1.41423e-16 0)
(3 -1.19738e-16 0)
(3 -1.71596e-16 0)
(3 3.90893e-16 0)
(3 4.7125e-16 0)
(3 1.74307e-16 0)
(3 -3.61127e-16 0)
(3 -1.05296e-15 0)
(3 -1.48114e-15 0)
(3 -1.38501e-15 0)
(3 -5.53352e-16 0)
(3 -6.32808e-16 0)
(3 -4.16897e-16 0)
(3 -1.19075e-16 0)
(3 1.42941e-16 0)
(3 -6.81114e-20 0)
(3 7.20525e-16 0)
(3 4.5925e-16 0)
(3 -8.27855e-16 0)
(3 -1.13854e-15 0)
(3 -5.15606e-16 0)
(3 -9.21141e-16 0)
(3 -1.92764e-16 0)
(3 1.00764e-15 0)
(3 1.04058e-15 0)
(3 1.16048e-16 0)
(3 -1.28836e-15 0)
(3 -1.20035e-16 0)
(3 6.41636e-16 0)
(3 1.04943e-15 0)
(3 3.2533e-16 0)
(3 -2.33731e-16 0)
(3 -2.21798e-16 0)
(3 5.70347e-16 0)
(3 1.18045e-15 0)
(3 9.17842e-16 0)
(3 -7.11586e-17 0)
(3 -1.2464e-15 0)
(3 -2.19827e-16 0)
(3 5.37783e-16 0)
(3 4.52635e-16 0)
(3 -3.5913e-16 0)
(3 -2.38922e-16 0)
(3 8.11745e-16 0)
(3 7.94315e-16 0)
(3 5.13779e-16 0)
(3 4.44021e-16 0)
(3 5.75499e-16 0)
(3 -6.32062e-16 0)
(3 -1.11385e-15 0)
(3 -7.98036e-16 0)
(2.36767 -0.000177221 0)
(0.302358 0.000787162 0)
(0.0416433 0.00596398 0)
(0.0118982 0.0121941 0)
(0.0098777 0.0194546 0)
(0.0117371 0.0286253 0)
(0.0167598 0.0374599 0)
(0.0172617 0.0470494 0)
(0.0133532 0.0549853 0)
(0.011481 0.0627091 0)
(0.00491093 0.067731 0)
(0.00696927 0.0713119 0)
(0.00418621 0.0733872 0)
(0.00150656 0.0747925 0)
(0.000337978 0.0755504 0)
(3 5.58238e-17 0)
(3 1.72587e-16 0)
(3 5.49783e-16 0)
(3 8.37243e-16 0)
(3 5.22505e-16 0)
(3 1.43318e-16 0)
(3 2.92047e-16 0)
(3 6.20181e-16 0)
(3 4.47839e-16 0)
(3 5.89775e-16 0)
(3 8.23583e-16 0)
(3 9.34093e-16 0)
(3 4.3673e-16 0)
(3 5.18892e-16 0)
(3 -2.31875e-16 0)
(3 -1.19518e-15 0)
(3 -1.59036e-15 0)
(3 -2.43527e-15 0)
(3 -1.7489e-15 0)
(3 -1.28355e-15 0)
(3 -4.18456e-16 0)
(3 2.58783e-16 0)
(3 1.14696e-15 0)
(3 1.62953e-15 0)
(3 2.04931e-15 0)
(3 1.57124e-15 0)
(3 1.21407e-15 0)
(3 1.22264e-15 0)
(3 9.64363e-16 0)
(3 1.49969e-15 0)
(3 1.87536e-15 0)
(3 1.73997e-15 0)
(3 -2.13337e-18 0)
(3 3.37408e-19 0)
(3 3.81136e-16 0)
(3 6.73796e-16 0)
(3 6.16506e-18 0)
(3 -6.45369e-16 0)
(3 -1.07168e-15 0)
(3 -1.65467e-15 0)
(3 -1.8061e-15 0)
(3 -1.80829e-15 0)
(3 -1.6712e-15 0)
(3 -1.68709e-15 0)
(3 -1.13182e-15 0)
(3 -3.5527e-16 0)
(3 -1.27185e-15 0)
(3 -2.05945e-15 0)
(3 -2.27342e-15 0)
(3 -1.65399e-15 0)
(3 -7.77666e-19 0)
(3 1.2801e-15 0)
(3 1.95144e-15 0)
(3 1.53668e-15 0)
(3 1.46143e-15 0)
(3 8.06507e-16 0)
(3 -9.0353e-16 0)
(3 -2.26266e-15 0)
(3 -1.24776e-15 0)
(3 -1.76855e-16 0)
(3 -1.56334e-17 0)
(3 7.30903e-16 0)
(3 3.16093e-15 0)
(3 2.25317e-15 0)
(3 -1.22746e-15 0)
(3 -2.68087e-15 0)
(3 -2.74797e-15 0)
(3 -2.55898e-15 0)
(3 -2.47852e-15 0)
(3 -2.66741e-15 0)
(3 -5.72763e-16 0)
(3 -5.38348e-16 0)
(3 -6.62743e-16 0)
(3 6.1066e-16 0)
(3 7.83957e-16 0)
(3 5.26781e-16 0)
(3 6.85654e-16 0)
(3 1.24456e-16 0)
(3 -1.30147e-15 0)
(3 -1.49353e-15 0)
(3 -1.94581e-15 0)
(2.37132 0.00226464 0)
(0.310337 0.00911579 0)
(0.0490604 0.0188078 0)
(0.0221129 0.0281234 0)
(0.0179552 0.0385774 0)
(0.0218803 0.0485858 0)
(0.0251872 0.0580537 0)
(0.0255441 0.0681286 0)
(0.0194366 0.075823 0)
(0.0172061 0.0843392 0)
(0.00966479 0.0886714 0)
(0.0108172 0.0919376 0)
(0.0067958 0.093201 0)
(0.00335962 0.0944196 0)
(0.00066303 0.0947661 0)
(3 -1.56757e-17 0)
(3 -1.13365e-16 0)
(3 -1.24202e-16 0)
(3 -6.91058e-16 0)
(3 -5.09772e-16 0)
(3 -6.22309e-16 0)
(3 -9.92086e-16 0)
(3 -1.04547e-15 0)
(3 -1.23297e-15 0)
(3 -6.59414e-16 0)
(3 -1.4836e-16 0)
(3 8.3855e-16 0)
(3 8.80932e-16 0)
(3 7.99879e-17 0)
(3 -1.17863e-17 0)
(3 -1.58175e-16 0)
(3 -9.82576e-16 0)
(3 -2.25534e-15 0)
(3 -2.14163e-15 0)
(3 -3.1025e-16 0)
(3 4.12908e-16 0)
(3 5.59489e-16 0)
(3 1.90101e-15 0)
(3 2.99648e-15 0)
(3 3.3017e-15 0)
(3 2.20294e-15 0)
(3 1.79132e-15 0)
(3 1.83708e-15 0)
(3 1.58461e-15 0)
(3 1.43119e-15 0)
(3 1.76544e-15 0)
(3 1.66556e-15 0)
(3 8.32699e-16 0)
(3 -3.26848e-16 0)
(3 -2.90205e-16 0)
(3 -1.65824e-16 0)
(3 -1.23759e-16 0)
(3 -3.10019e-16 0)
(3 1.47039e-16 0)
(3 -8.10615e-16 0)
(3 -2.63213e-15 0)
(3 -2.57267e-15 0)
(3 -2.69666e-15 0)
(3 -2.83401e-15 0)
(3 -2.78091e-15 0)
(3 -1.97826e-15 0)
(3 -2.82876e-15 0)
(3 -3.19821e-15 0)
(3 -2.59359e-15 0)
(3 -1.41523e-15 0)
(3 -7.14153e-16 0)
(3 -1.10929e-17 0)
(3 1.88494e-16 0)
(3 5.66112e-17 0)
(3 1.80517e-16 0)
(3 3.61563e-16 0)
(3 -1.38032e-15 0)
(3 -2.49449e-15 0)
(3 -1.80757e-15 0)
(3 -1.22951e-15 0)
(3 4.30991e-16 0)
(3 1.44075e-15 0)
(3 1.48237e-15 0)
(3 8.33727e-16 0)
(3 -1.76078e-16 0)
(3 -2.16185e-16 0)
(3 -4.28138e-16 0)
(3 -7.18726e-16 0)
(3 -2.0195e-15 0)
(3 -1.72037e-15 0)
(3 -6.30304e-16 0)
(3 -2.26022e-16 0)
(3 -2.10032e-16 0)
(3 -5.57404e-16 0)
(3 3.20657e-16 0)
(3 3.36264e-16 0)
(3 -4.92302e-16 0)
(3 -1.6233e-15 0)
(3 -2.36079e-15 0)
(3 -1.98564e-15 0)
(3 -1.00452e-15 0)
(2.40165 0.0120798 0)
(0.331511 0.030189 0)
(0.0606278 0.0378956 0)
(0.0329468 0.0479383 0)
(0.0278471 0.058809 0)
(0.0324261 0.0681997 0)
(0.0325426 0.0773965 0)
(0.0329693 0.0873973 0)
(0.0256022 0.0942415 0)
(0.022286 0.102847 0)
(0.0143434 0.106105 0)
(0.0144012 0.109138 0)
(0.00902409 0.10962 0)
(0.00478821 0.110547 0)
(0.00112308 0.110357 0)
(3 -3.89846e-17 0)
(3 -4.98069e-17 0)
(3 -2.43431e-16 0)
(3 -5.8352e-16 0)
(3 -5.44471e-16 0)
(3 -5.97e-16 0)
(3 -1.27194e-15 0)
(3 -1.70087e-15 0)
(3 -1.69569e-15 0)
(3 -1.32606e-15 0)
(3 -8.41754e-16 0)
(3 -3.50874e-16 0)
(3 -1.09859e-16 0)
(3 -4.83775e-16 0)
(3 4.51712e-17 0)
(3 8.60237e-17 0)
(3 -3.67792e-16 0)
(3 -8.39136e-16 0)
(3 -1.25348e-15 0)
(3 -1.17937e-15 0)
(3 -8.66601e-16 0)
(3 -1.20543e-16 0)
(3 1.30174e-15 0)
(3 1.84592e-15 0)
(3 2.21957e-15 0)
(3 2.12876e-15 0)
(3 1.03303e-15 0)
(3 5.72095e-16 0)
(3 8.59908e-16 0)
(3 1.50263e-15 0)
(3 1.6748e-15 0)
(3 1.92287e-15 0)
(3 1.54276e-15 0)
(3 1.25672e-15 0)
(3 1.00553e-15 0)
(3 6.83486e-16 0)
(3 6.39545e-16 0)
(3 5.91388e-16 0)
(3 5.5992e-16 0)
(3 4.14683e-17 0)
(3 -7.34725e-16 0)
(3 -1.7732e-15 0)
(3 -2.20032e-15 0)
(3 -2.62599e-15 0)
(3 -3.75623e-15 0)
(3 -4.18324e-15 0)
(3 -2.89873e-15 0)
(3 -2.43121e-15 0)
(3 -2.08104e-15 0)
(3 -1.98593e-15 0)
(3 -1.95071e-15 0)
(3 -1.5692e-15 0)
(3 -9.51614e-16 0)
(3 -2.95081e-16 0)
(3 2.53539e-16 0)
(3 -8.64587e-16 0)
(3 -2.14878e-15 0)
(3 -2.09556e-15 0)
(3 -1.30102e-15 0)
(3 -7.03921e-16 0)
(3 1.44423e-16 0)
(3 4.84351e-16 0)
(3 -2.1168e-16 0)
(3 -6.27103e-16 0)
(3 -7.55174e-16 0)
(3 1.60731e-17 0)
(3 4.63792e-16 0)
(3 6.8058e-16 0)
(3 4.90208e-16 0)
(3 3.61157e-16 0)
(3 -2.94711e-16 0)
(3 -3.57563e-16 0)
(3 -5.69935e-16 0)
(3 -3.3482e-16 0)
(3 7.27206e-17 0)
(3 2.09013e-16 0)
(3 -2.3214e-15 0)
(3 -2.79943e-15 0)
(3 -2.03563e-15 0)
(3 -1.45744e-15 0)
(3 -8.6163e-16 0)
(2.4704 0.0236264 0)
(0.370132 0.0604392 0)
(0.0762766 0.0612661 0)
(0.0439726 0.0678707 0)
(0.0387184 0.0777561 0)
(0.0420628 0.0869687 0)
(0.0386462 0.0950591 0)
(0.0391874 0.104865 0)
(0.0314147 0.110792 0)
(0.0266898 0.118992 0)
(0.0185929 0.121094 0)
(0.0173761 0.124177 0)
(0.0108617 0.12416 0)
(0.00588696 0.124641 0)
(0.00161453 0.124255 0)
(3 1.98775e-17 0)
(3 1.95611e-16 0)
(3 1.64207e-16 0)
(3 2.65754e-17 0)
(3 1.15059e-16 0)
(3 1.93003e-16 0)
(3 -1.60111e-16 0)
(3 -2.70777e-16 0)
(3 -8.25362e-16 0)
(3 -1.8825e-15 0)
(3 -1.47248e-15 0)
(3 -1.48649e-15 0)
(3 -9.60142e-16 0)
(3 -4.86645e-16 0)
(3 -2.96676e-16 0)
(3 2.62114e-17 0)
(3 8.51921e-16 0)
(3 9.05246e-16 0)
(3 -5.13362e-16 0)
(3 -7.67375e-16 0)
(3 -5.80882e-16 0)
(3 9.69578e-17 0)
(3 1.10145e-15 0)
(3 1.07813e-15 0)
(3 9.3265e-16 0)
(3 8.08423e-16 0)
(3 5.90659e-16 0)
(3 5.47823e-16 0)
(3 1.25476e-15 0)
(3 2.39022e-15 0)
(3 2.25081e-15 0)
(3 2.16796e-15 0)
(3 2.31093e-15 0)
(3 2.20997e-15 0)
(3 1.66029e-15 0)
(3 1.23118e-15 0)
(3 1.2253e-15 0)
(3 1.05865e-15 0)
(3 4.33068e-16 0)
(3 -1.07371e-15 0)
(3 -1.36144e-15 0)
(3 -1.30632e-15 0)
(3 -7.26458e-17 0)
(3 -1.85186e-16 0)
(3 -1.9367e-15 0)
(3 -3.12569e-15 0)
(3 -2.99243e-15 0)
(3 -2.24978e-15 0)
(3 -2.64728e-15 0)
(3 -2.52933e-15 0)
(3 -2.1526e-15 0)
(3 -1.7162e-15 0)
(3 -9.28819e-16 0)
(3 -8.33786e-16 0)
(3 -1.0024e-15 0)
(3 -1.55152e-15 0)
(3 -1.38104e-15 0)
(3 -3.2215e-16 0)
(3 -5.62355e-16 0)
(3 -6.31131e-16 0)
(3 -4.27062e-16 0)
(3 -5.75347e-16 0)
(3 -8.16141e-16 0)
(3 -8.80239e-16 0)
(3 -1.46019e-15 0)
(3 -9.77767e-16 0)
(3 2.00563e-16 0)
(3 2.48463e-16 0)
(3 6.99817e-16 0)
(3 4.58786e-16 0)
(3 -7.06997e-16 0)
(3 -1.30053e-15 0)
(3 -1.11246e-15 0)
(3 -9.66385e-16 0)
(3 -1.22444e-15 0)
(3 -1.69035e-15 0)
(3 -1.4325e-15 0)
(3 -1.32736e-15 0)
(3 -1.70911e-15 0)
(3 -2.09044e-15 0)
(3 -2.05117e-15 0)
(2.57408 0.0310543 0)
(0.42839 0.0960035 0)
(0.0967911 0.0897438 0)
(0.0553035 0.086904 0)
(0.049791 0.0949843 0)
(0.0508241 0.104238 0)
(0.0447604 0.110789 0)
(0.044617 0.120542 0)
(0.0365246 0.126075 0)
(0.0304663 0.133789 0)
(0.0222365 0.135183 0)
(0.0195299 0.138426 0)
(0.0125533 0.138124 0)
(0.00682661 0.138052 0)
(0.00211993 0.137935 0)
(3 8.45098e-17 0)
(3 3.01308e-18 0)
(3 -1.79051e-16 0)
(3 -4.48628e-16 0)
(3 -8.97173e-16 0)
(3 -8.65281e-16 0)
(3 -4.71463e-16 0)
(3 -3.43366e-16 0)
(3 -3.36899e-16 0)
(3 -8.04861e-16 0)
(3 -1.66368e-16 0)
(3 -4.69331e-16 0)
(3 -7.85861e-16 0)
(3 2.63693e-16 0)
(3 4.16214e-16 0)
(3 6.02533e-16 0)
(3 1.73047e-15 0)
(3 1.59323e-15 0)
(3 1.39571e-15 0)
(3 1.30988e-15 0)
(3 5.5108e-16 0)
(3 1.66748e-16 0)
(3 7.83113e-17 0)
(3 4.63794e-16 0)
(3 3.57482e-16 0)
(3 1.19219e-16 0)
(3 5.68461e-16 0)
(3 9.07393e-16 0)
(3 1.6464e-15 0)
(3 1.44604e-15 0)
(3 1.4395e-15 0)
(3 1.6648e-15 0)
(3 2.54582e-15 0)
(3 2.72444e-15 0)
(3 2.4253e-15 0)
(3 1.45712e-15 0)
(3 1.60111e-15 0)
(3 2.47553e-16 0)
(3 -9.72826e-16 0)
(3 -1.17531e-15 0)
(3 -1.23848e-15 0)
(3 -1.0663e-15 0)
(3 1.33688e-16 0)
(3 1.17431e-16 0)
(3 -3.23644e-16 0)
(3 -1.812e-15 0)
(3 -3.55744e-15 0)
(3 -3.4958e-15 0)
(3 -3.40694e-15 0)
(3 -3.39488e-15 0)
(3 -3.05572e-15 0)
(3 -1.99159e-15 0)
(3 -1.85781e-15 0)
(3 -2.37025e-15 0)
(3 -2.85036e-15 0)
(3 -5.57022e-16 0)
(3 1.94681e-15 0)
(3 1.55825e-15 0)
(3 1.5057e-16 0)
(3 -5.18404e-16 0)
(3 -8.42158e-16 0)
(3 -9.10878e-16 0)
(3 -9.77968e-16 0)
(3 -9.05496e-16 0)
(3 -5.78247e-16 0)
(3 2.35551e-16 0)
(3 3.25088e-16 0)
(3 4.92106e-16 0)
(3 3.84219e-16 0)
(3 4.19985e-18 0)
(3 -6.83416e-16 0)
(3 -2.25842e-15 0)
(3 -2.4965e-15 0)
(3 -2.34964e-15 0)
(3 -1.84404e-15 0)
(3 -9.5438e-16 0)
(3 -5.78328e-17 0)
(3 -1.65884e-16 0)
(3 -1.54959e-15 0)
(3 -2.17671e-15 0)
(3 -1.01642e-15 0)
(2.70104 0.031134 0)
(0.509317 0.134163 0)
(0.12199 0.124491 0)
(0.0684269 0.105376 0)
(0.061223 0.11163 0)
(0.0594998 0.119714 0)
(0.0515179 0.125217 0)
(0.0490548 0.135059 0)
(0.0405019 0.140777 0)
(0.0337366 0.148169 0)
(0.0254197 0.149558 0)
(0.021563 0.152852 0)
(0.0145415 0.152507 0)
(0.00786537 0.152009 0)
(0.00263966 0.152476 0)
(3 -1.0146e-16 0)
(3 -2.62912e-16 0)
(3 3.13931e-16 0)
(3 2.18023e-16 0)
(3 -3.1767e-16 0)
(3 -3.93288e-16 0)
(3 -1.82559e-16 0)
(3 -1.93212e-16 0)
(3 2.51675e-18 0)
(3 8.75467e-16 0)
(3 1.07133e-15 0)
(3 5.66936e-16 0)
(3 4.38983e-16 0)
(3 1.59797e-15 0)
(3 1.391e-15 0)
(3 5.30437e-16 0)
(3 4.18739e-16 0)
(3 1.04174e-15 0)
(3 1.36039e-15 0)
(3 6.36522e-16 0)
(3 -2.25791e-16 0)
(3 -8.09867e-16 0)
(3 -1.36205e-15 0)
(3 -1.17771e-15 0)
(3 -3.21129e-16 0)
(3 -3.03003e-16 0)
(3 4.9238e-16 0)
(3 8.07618e-16 0)
(3 5.35711e-16 0)
(3 3.09287e-16 0)
(3 7.56264e-16 0)
(3 1.27383e-15 0)
(3 2.03283e-15 0)
(3 3.18957e-15 0)
(3 2.8897e-15 0)
(3 2.45258e-15 0)
(3 7.04183e-16 0)
(3 -8.48657e-16 0)
(3 -7.27484e-16 0)
(3 -2.51123e-16 0)
(3 2.94264e-17 0)
(3 3.91003e-17 0)
(3 -2.92849e-16 0)
(3 -7.80901e-16 0)
(3 -9.58619e-16 0)
(3 -2.21294e-15 0)
(3 -3.45068e-15 0)
(3 -3.53797e-15 0)
(3 -3.30009e-15 0)
(3 -2.45715e-15 0)
(3 -1.82473e-15 0)
(3 -9.80463e-16 0)
(3 -1.42099e-15 0)
(3 -2.18658e-15 0)
(3 -1.51017e-15 0)
(3 1.45896e-16 0)
(3 2.178e-15 0)
(3 1.96992e-15 0)
(3 9.13692e-16 0)
(3 5.63373e-16 0)
(3 1.09424e-16 0)
(3 -4.56175e-16 0)
(3 -8.39957e-16 0)
(3 -8.63891e-16 0)
(3 -5.56458e-16 0)
(3 -4.32587e-16 0)
(3 -5.364e-16 0)
(3 -4.34108e-17 0)
(3 2.3632e-16 0)
(3 3.33532e-16 0)
(3 -4.88044e-17 0)
(3 -3.92193e-16 0)
(3 -5.73781e-16 0)
(3 -2.48919e-16 0)
(3 2.85007e-16 0)
(3 3.13309e-16 0)
(3 -4.68554e-16 0)
(3 -1.45895e-15 0)
(3 -2.08069e-15 0)
(3 -2.20905e-15 0)
(3 -6.12576e-16 0)
(2.83371 0.0224221 0)
(0.616862 0.172642 0)
(0.150043 0.16382 0)
(0.0841103 0.128434 0)
(0.0721437 0.129872 0)
(0.0669567 0.134482 0)
(0.0585287 0.139517 0)
(0.0526863 0.148946 0)
(0.0441883 0.155295 0)
(0.0374606 0.162663 0)
(0.0288026 0.164765 0)
(0.0240332 0.168201 0)
(0.0166832 0.168166 0)
(0.00887934 0.167417 0)
(0.00300092 0.168355 0)
(3 -2.78568e-16 0)
(3 -3.18876e-16 0)
(3 -4.2509e-16 0)
(3 -3.27399e-16 0)
(3 -1.86121e-16 0)
(3 -5.01223e-16 0)
(3 -5.57198e-16 0)
(3 -2.62538e-16 0)
(3 6.00594e-16 0)
(3 5.74706e-16 0)
(3 -3.4893e-16 0)
(3 -3.69192e-16 0)
(3 1.23281e-16 0)
(3 6.81618e-16 0)
(3 1.16988e-15 0)
(3 3.29574e-16 0)
(3 -1.31184e-15 0)
(3 -1.22851e-15 0)
(3 -8.79192e-16 0)
(3 -8.12475e-16 0)
(3 -5.28914e-16 0)
(3 -5.22064e-16 0)
(3 -1.00016e-15 0)
(3 -1.20268e-15 0)
(3 -4.31418e-16 0)
(3 1.49116e-16 0)
(3 8.19082e-16 0)
(3 1.2296e-15 0)
(3 6.45127e-16 0)
(3 2.98075e-16 0)
(3 2.84694e-16 0)
(3 3.99539e-16 0)
(3 4.55475e-16 0)
(3 -7.67002e-18 0)
(3 -5.60703e-16 0)
(3 -4.45891e-16 0)
(3 -7.88e-16 0)
(3 -3.67801e-16 0)
(3 -6.15106e-17 0)
(3 -8.9704e-17 0)
(3 4.61722e-16 0)
(3 1.26549e-15 0)
(3 1.0297e-15 0)
(3 1.92874e-16 0)
(3 -9.18798e-16 0)
(3 -1.85027e-15 0)
(3 -2.09658e-15 0)
(3 -2.36624e-15 0)
(3 -1.84659e-15 0)
(3 -9.88927e-16 0)
(3 -2.21707e-16 0)
(3 1.17942e-16 0)
(3 -4.33356e-16 0)
(3 -8.06604e-16 0)
(3 -3.55854e-17 0)
(3 1.75513e-15 0)
(3 3.36001e-15 0)
(3 4.52281e-15 0)
(3 2.86869e-15 0)
(3 1.12599e-15 0)
(3 3.45856e-16 0)
(3 -4.43448e-16 0)
(3 -8.5865e-16 0)
(3 -1.21557e-15 0)
(3 -7.60637e-16 0)
(3 -1.21302e-15 0)
(3 -9.19229e-16 0)
(3 -1.21178e-15 0)
(3 -1.18697e-15 0)
(3 -1.20258e-15 0)
(3 -1.08348e-15 0)
(3 -5.47331e-16 0)
(3 1.40689e-15 0)
(3 1.67142e-15 0)
(3 1.32003e-15 0)
(3 -5.36903e-16 0)
(3 -8.98109e-16 0)
(3 -1.65496e-15 0)
(3 -1.72888e-15 0)
(3 -2.67009e-15 0)
(3 -9.87784e-16 0)
(2.94728 0.00711808 0)
(0.754793 0.209344 0)
(0.178272 0.204064 0)
(0.0991836 0.16092 0)
(0.0874379 0.147051 0)
(0.0766635 0.148911 0)
(0.0659933 0.154345 0)
(0.0564986 0.163022 0)
(0.0486083 0.170122 0)
(0.0421878 0.177797 0)
(0.0325027 0.18119 0)
(0.0268111 0.184874 0)
(0.0187723 0.18527 0)
(0.0099711 0.184322 0)
(0.0032781 0.185353 0)
(3 4.00183e-16 0)
(3 1.56094e-16 0)
(3 -3.01793e-16 0)
(3 -2.6061e-16 0)
(3 -1.01824e-16 0)
(3 -9.43748e-16 0)
(3 -6.85327e-16 0)
(3 -1.94819e-16 0)
(3 5.65529e-17 0)
(3 7.89249e-17 0)
(3 -1.38136e-16 0)
(3 -4.95145e-16 0)
(3 -6.32046e-16 0)
(3 -7.19387e-16 0)
(3 -2.27017e-16 0)
(3 -3.803e-16 0)
(3 -7.57831e-16 0)
(3 -1.62698e-15 0)
(3 -9.63692e-16 0)
(3 -2.5521e-16 0)
(3 -6.24063e-16 0)
(3 -1.09363e-15 0)
(3 -1.21379e-15 0)
(3 -1.05353e-15 0)
(3 -1.24049e-15 0)
(3 -1.17314e-15 0)
(3 -1.48141e-15 0)
(3 -7.08281e-17 0)
(3 1.081e-15 0)
(3 1.17687e-15 0)
(3 8.34894e-16 0)
(3 7.05824e-16 0)
(3 -1.09174e-15 0)
(3 -3.09491e-15 0)
(3 -3.56012e-15 0)
(3 -3.2084e-15 0)
(3 -1.51428e-15 0)
(3 -8.34462e-16 0)
(3 2.64197e-16 0)
(3 6.11237e-16 0)
(3 7.97403e-16 0)
(3 1.19021e-15 0)
(3 1.11059e-15 0)
(3 3.42769e-16 0)
(3 -2.95733e-16 0)
(3 -1.81898e-16 0)
(3 4.48843e-16 0)
(3 9.82358e-16 0)
(3 1.0004e-15 0)
(3 5.78541e-16 0)
(3 3.92929e-16 0)
(3 8.59339e-17 0)
(3 -4.32863e-17 0)
(3 3.22523e-16 0)
(3 1.14765e-15 0)
(3 1.47092e-15 0)
(3 2.52497e-15 0)
(3 2.61045e-15 0)
(3 2.63515e-15 0)
(3 2.58161e-15 0)
(3 2.21226e-15 0)
(3 1.1138e-15 0)
(3 4.21571e-16 0)
(3 9.85634e-16 0)
(3 3.38252e-16 0)
(3 -6.73675e-17 0)
(3 -4.02223e-16 0)
(3 -1.7977e-15 0)
(3 -1.71772e-15 0)
(3 -1.68134e-15 0)
(3 -1.17203e-15 0)
(3 -6.46971e-16 0)
(3 9.60914e-17 0)
(3 4.08384e-16 0)
(3 -8.40426e-16 0)
(3 -1.31057e-15 0)
(3 -9.51319e-16 0)
(3 -8.63191e-16 0)
(3 -1.03135e-15 0)
(3 -1.35627e-15 0)
(3 -1.33634e-15 0)
(2.99987 0.000167928 0)
(0.927444 0.242926 0)
(0.206997 0.243337 0)
(0.117452 0.196937 0)
(0.10614 0.169226 0)
(0.0872908 0.167308 0)
(0.0722318 0.170637 0)
(0.0605845 0.177984 0)
(0.0541788 0.185822 0)
(0.0477028 0.193903 0)
(0.0365083 0.198647 0)
(0.0298485 0.20254 0)
(0.0209497 0.203179 0)
(0.0113776 0.202095 0)
(0.00361624 0.2029 0)
(3 1.28599e-16 0)
(3 4.48121e-16 0)
(3 2.57224e-16 0)
(3 5.48929e-17 0)
(3 -4.93137e-17 0)
(3 4.35032e-16 0)
(3 2.82453e-16 0)
(3 6.66191e-16 0)
(3 -2.60252e-16 0)
(3 -2.75134e-16 0)
(3 -1.82969e-16 0)
(3 -3.6447e-16 0)
(3 -8.90972e-16 0)
(3 -1.99608e-15 0)
(3 -1.9992e-15 0)
(3 -9.73927e-16 0)
(3 1.18415e-17 0)
(3 3.37591e-16 0)
(3 1.10756e-15 0)
(3 1.29935e-15 0)
(3 -8.10182e-16 0)
(3 -1.06418e-15 0)
(3 -1.36083e-15 0)
(3 -1.22422e-15 0)
(3 -1.39464e-15 0)
(3 -1.15087e-15 0)
(3 -1.67639e-15 0)
(3 -1.75155e-15 0)
(3 -6.95322e-16 0)
(3 -5.36228e-16 0)
(3 -1.19806e-15 0)
(3 -1.8693e-15 0)
(3 -2.94286e-15 0)
(3 -3.20323e-15 0)
(3 -3.72152e-15 0)
(3 -2.44885e-15 0)
(3 -9.73733e-16 0)
(3 -6.99381e-17 0)
(3 3.05433e-16 0)
(3 6.75966e-16 0)
(3 8.77664e-16 0)
(3 5.70379e-16 0)
(3 1.03142e-15 0)
(3 2.77977e-16 0)
(3 -8.19569e-16 0)
(3 -1.56058e-15 0)
(3 -8.40566e-16 0)
(3 4.63899e-16 0)
(3 4.68795e-16 0)
(3 2.24365e-17 0)
(3 -3.9098e-16 0)
(3 4.7076e-16 0)
(3 9.95202e-16 0)
(3 1.21195e-15 0)
(3 1.30784e-15 0)
(3 1.81665e-15 0)
(3 1.30215e-15 0)
(3 1.37223e-15 0)
(3 1.6381e-15 0)
(3 1.68277e-15 0)
(3 1.7897e-15 0)
(3 1.57541e-15 0)
(3 1.55149e-15 0)
(3 1.69971e-15 0)
(3 1.61764e-15 0)
(3 3.29282e-16 0)
(3 9.85266e-17 0)
(3 -7.86744e-17 0)
(3 -5.62314e-17 0)
(3 8.24574e-17 0)
(3 5.33124e-16 0)
(3 1.36183e-15 0)
(3 8.53781e-16 0)
(3 -5.12013e-17 0)
(3 -2.81864e-16 0)
(3 -9.67559e-16 0)
(3 -1.08796e-15 0)
(3 -7.73422e-16 0)
(3 -5.91443e-16 0)
(3 -1.30656e-15 0)
(3 -1.95752e-15 0)
(3 2.37645e-09 0)
(1.15018 0.268727 0)
(0.241565 0.278073 0)
(0.139022 0.237502 0)
(0.126554 0.199828 0)
(0.100291 0.189378 0)
(0.0798298 0.187407 0)
(0.0665068 0.193549 0)
(0.0616534 0.202622 0)
(0.0538457 0.210857 0)
(0.0407724 0.216478 0)
(0.033093 0.220508 0)
(0.0233607 0.221158 0)
(0.0131383 0.220016 0)
(0.00406608 0.220449 0)
(3 -4.96457e-17 0)
(3 1.62148e-16 0)
(3 9.34943e-17 0)
(3 -2.11761e-16 0)
(3 -3.15084e-17 0)
(3 1.59031e-15 0)
(3 2.2045e-15 0)
(3 1.42397e-15 0)
(3 5.40295e-16 0)
(3 -2.72878e-16 0)
(3 -5.38119e-16 0)
(3 -3.85004e-16 0)
(3 -1.08615e-15 0)
(3 -1.20071e-15 0)
(3 -1.12181e-15 0)
(3 -8.20026e-16 0)
(3 6.09855e-16 0)
(3 1.63689e-15 0)
(3 1.4636e-15 0)
(3 8.47855e-16 0)
(3 1.2467e-16 0)
(3 -2.87236e-17 0)
(3 9.24776e-17 0)
(3 -1.99287e-16 0)
(3 5.92743e-16 0)
(3 7.94016e-16 0)
(3 -4.11538e-17 0)
(3 -1.49758e-15 0)
(3 -2.70166e-15 0)
(3 -2.97004e-15 0)
(3 -3.15208e-15 0)
(3 -3.89641e-15 0)
(3 -3.09887e-15 0)
(3 -1.73047e-15 0)
(3 -1.24095e-15 0)
(3 -1.32549e-15 0)
(3 -1.72506e-15 0)
(3 -1.09743e-15 0)
(3 -8.39781e-16 0)
(3 4.98873e-16 0)
(3 8.9215e-16 0)
(3 5.8188e-16 0)
(3 7.96674e-16 0)
(3 4.94489e-16 0)
(3 4.18854e-16 0)
(3 7.26246e-16 0)
(3 9.09093e-16 0)
(3 1.27061e-15 0)
(3 1.66126e-15 0)
(3 2.08927e-15 0)
(3 2.7468e-15 0)
(3 2.94187e-15 0)
(3 3.21043e-15 0)
(3 1.67848e-15 0)
(3 1.36919e-15 0)
(3 1.08203e-15 0)
(3 7.63483e-16 0)
(3 5.766e-16 0)
(3 6.38866e-16 0)
(3 4.12175e-16 0)
(3 4.07134e-16 0)
(3 3.51337e-16 0)
(3 1.1461e-15 0)
(3 8.49919e-16 0)
(3 7.16711e-16 0)
(3 5.53927e-16 0)
(3 1.02535e-16 0)
(3 6.35604e-16 0)
(3 4.69017e-16 0)
(3 5.76639e-16 0)
(3 8.28235e-16 0)
(3 9.83614e-16 0)
(3 -3.49572e-16 0)
(3 -9.13755e-16 0)
(3 -8.4604e-16 0)