/*--------------------------------*- C++ -*----------------------------------*\
  =========                 |
  \\      /  F ield         | OpenFOAM: The Open Source CFD Toolbox
   \\    /   O peration     | Website:  https://openfoam.org
    \\  /    A nd           | Version:  7
     \\/     M anipulation  |
\*---------------------------------------------------------------------------*/
FoamFile
{
    version     2.0;
    format      ascii;
    class       volScalarField;
    location    "2.5";
    object      p;
}
// * * * * * * * * * * * * * * * * * * * * * * * * * * * * * * * * * * * * * //

dimensions      [1 -1 -2 0 0 0 0];

internalField   nonuniform List<scalar> 
258048
(
1
1
1
1
1
1
1
1
1
1
1
1
1
1
1
1
1
1
1
1
1
1
1
1
1
1
1
1
1
1
1
1
1
1
1
1
1
1
1
1
1
1
1
1
1
1
1
1
1
1
1
1
1
1
1
1
1
1
1
1
1
1
1
1
1
1
1
1
1
1
1
1
1
1
1
1
1
1
1
1
1
1
1
1
1
1
1
1
1
1
1
1
1
1
1
1
1
1
1
4.51263
10.0395
10.415
10.4551
10.5084
10.5491
10.5791
10.5927
10.5974
10.6061
10.6334
10.6914
10.7508
10.8005
10.8318
10.8385
10.8276
10.8167
10.8241
10.8666
10.9367
11.0035
11.052
11.0749
11.0713
11.0627
11.0656
11.0954
11.1476
11.201
11.2408
11.2594
11.2621
11.2615
11.2671
11.2856
11.3167
11.3531
11.3856
11.4075
11.4195
11.4301
11.4499
11.4848
11.5286
11.5687
11.5917
11.5946
11.5862
11.5796
11.5879
11.6165
11.657
11.6939
11.7155
11.7226
11.7242
11.7317
11.7513
11.779
11.8042
11.8194
11.8266
11.8332
11.8432
11.8572
11.871
11.8795
11.882
11.8838
11.8945
11.9186
11.9511
11.9789
11.9915
11.9903
11.9842
11.9829
11.9926
12.0128
12.0342
12.0453
12.0437
12.0373
12.0352
12.0424
12.0555
12.0668
12.0704
12.0646
12.0498
12.033
12.0174
1
1
1
1
1
1
1
1
1
1
1
1
1
1
1
1
1
1
1
1
1
1
1
1
1
1
1
1
1
1
1
1
1
1
1
1
1
1
1
1
1
1
1
1
1
1
1
1
1
1
1
1
1
1
1
1
1
1
1
1
1
1
1
1
1
1
1
1
1
1
1
1
1
1
1
1
1
1
1
1
1
1
1
1
1
1
1
1
1
1
1
1
1
1
1
1
1
1
1
4.47983
10.0522
10.4155
10.4497
10.4956
10.535
10.5715
10.5965
10.6097
10.6199
10.6391
10.6844
10.7398
10.7886
10.8227
10.8373
10.8336
10.8274
10.8333
10.8683
10.9321
10.997
11.0454
11.0699
11.0715
11.0674
11.0725
11.0997
11.1465
11.1955
11.2331
11.253
11.2597
11.2631
11.2718
11.2916
11.3221
11.3567
11.3871
11.4072
11.4178
11.4272
11.4465
11.482
11.5273
11.5687
11.5921
11.5945
11.5855
11.5782
11.5864
11.616
11.6578
11.6949
11.7154
11.7214
11.7226
11.7307
11.7516
11.7799
11.8041
11.8167
11.8222
11.8292
11.8415
11.8586
11.8749
11.8839
11.8843
11.8835
11.8923
11.9171
11.9512
11.9799
11.9921
11.9896
11.9828
11.982
11.9931
12.015
12.0364
12.046
12.0427
12.0353
12.034
12.0429
12.0568
12.0677
12.0699
12.0625
12.0477
12.0326
12.0191
1
1
1
1
1
1
1
1
1
1
1
1
1
1
1
1
1
1
1
1
1
1
1
1
1
1
1
1
1
1
1
1
1
1
1
1
1
1
1
1
1
1
1
1
1
1
1
1
1
1
1
1
1
1
1
1
1
1
1
1
1
1
1
1
1
1
1
1
1
1
1
1
1
1
1
1
1
1
1
1
1
1
1
1
1
1
1
1
1
1
1
1
1
1
1
1
1
1
1
4.41671
10.0787
10.4212
10.4425
10.4788
10.517
10.5594
10.5956
10.6202
10.6345
10.6486
10.6814
10.7293
10.7755
10.8115
10.8321
10.8379
10.8387
10.8461
10.8751
10.9302
10.9896
11.0353
11.0599
11.0674
11.0702
11.0809
11.1081
11.1491
11.1911
11.2231
11.2416
11.2514
11.2599
11.274
11.2975
11.3289
11.3619
11.3897
11.4072
11.4159
11.424
11.4422
11.4778
11.5242
11.5672
11.5916
11.5941
11.5847
11.5765
11.5845
11.6153
11.6585
11.6956
11.715
11.7195
11.7198
11.7285
11.7516
11.7816
11.8053
11.8151
11.8173
11.8224
11.8355
11.8563
11.8779
11.8899
11.8889
11.8849
11.8894
11.9122
11.9477
11.9783
11.9911
11.9873
11.9789
11.9775
11.99
12.0151
12.038
12.0462
12.0405
12.0307
12.0297
12.0411
12.0571
12.0683
12.0689
12.0592
12.0439
12.0307
12.0203
1
1
1
1
1
1
1
1
1
1
1
1
1
1
1
1
1
1
1
1
1
1
1
1
1
1
1
1
1
1
1
1
1
1
1
1
1
1
1
1
1
1
1
1
1
1
1
1
1
1
1
1
1
1
1
1
1
1
1
1
1
1
1
1
1
1
1
1
1
1
1
1
1
1
1
1
1
1
1
1
1
1
1
1
1
1
1
1
1
1
1
1
1
1
1
1
1
1
1
4.34289
10.0801
10.4253
10.4358
10.4635
10.5031
10.5516
10.5979
10.6315
10.6479
10.6559
10.6755
10.7146
10.7598
10.8003
10.8294
10.8448
10.8521
10.8596
10.8817
10.9264
10.9787
11.0218
11.0485
11.063
11.0751
11.0915
11.1175
11.1513
11.1849
11.2112
11.2293
11.2431
11.2582
11.2781
11.3049
11.3364
11.3671
11.3917
11.4066
11.4135
11.4209
11.4386
11.4737
11.5201
11.5636
11.5887
11.5919
11.5828
11.5748
11.5838
11.616
11.6599
11.6959
11.7132
11.716
11.7156
11.7253
11.7514
11.7834
11.8063
11.8128
11.812
11.8146
11.8282
11.8536
11.8809
11.8964
11.8947
11.8877
11.8882
11.9075
11.9428
11.9753
11.9894
11.9856
11.9766
11.9745
11.9879
12.0155
12.0394
12.0464
12.0387
12.0272
12.0263
12.0396
12.0573
12.0685
12.0675
12.0558
12.0402
12.0291
12.022
1
1
1
1
1
1
1
1
1
1
1
1
1
1
1
1
1
1
1
1
1
1
1
1
1
1
1
1
1
1
1
1
1
1
1
1
1
1
1
1
1
1
1
1
1
1
1
1
1
1
1
1
1
1
1
1
1
1
1
1
1
1
1
1
1
1
1
1
1
1
1
1
1
1
1
1
1
1
1
1
1
1
1
1
1
1
1
1
1
1
1
1
1
1
1
1
1
1
1
4.26499
10.0659
10.4219
10.428
10.4521
10.4939
10.5466
10.5979
10.6368
10.656
10.6612
10.6711
10.7011
10.7454
10.7903
10.8269
10.8508
10.8638
10.8722
10.889
10.9235
10.9679
11.0074
11.0356
11.0579
11.0795
11.1019
11.1268
11.1537
11.1789
11.1996
11.2173
11.2354
11.2569
11.2819
11.3111
11.3419
11.3701
11.392
11.4048
11.4111
11.4193
11.4373
11.4712
11.5156
11.5575
11.5824
11.5871
11.58
11.5743
11.5852
11.6183
11.6612
11.6951
11.7098
11.7112
11.7106
11.7215
11.7504
11.7843
11.8066
11.8108
11.8073
11.8076
11.821
11.8499
11.8821
11.9014
11.9007
11.8921
11.8891
11.9037
11.936
11.9691
11.9851
11.9829
11.9747
11.9727
11.9861
12.0141
12.0381
12.0449
12.0364
12.0243
12.0235
12.0373
12.0556
12.0665
12.0644
12.0517
12.0364
12.0271
12.0229
1
1
1
1
1
1
1
1
1
1
1
1
1
1
1
1
1
1
1
1
1
1
1
1
1
1
1
1
1
1
1
1
1
1
1
1
1
1
1
1
1
1
1
1
1
1
1
1
1
1
1
1
1
1
1
1
1
1
1
1
1
1
1
1
1
1
1
1
1
1
1
1
1
1
1
1
1
1
1
1
1
1
1
1
1
1
1
1
1
1
1
1
1
1
1
1
1
1
1
4.17467
10.0519
10.4123
10.4137
10.4402
10.485
10.5412
10.5964
10.6385
10.6603
10.6649
10.6677
10.6896
10.7323
10.7805
10.8233
10.8547
10.8732
10.8832
10.896
10.9206
10.956
10.9911
11.0217
11.0535
11.0844
11.1115
11.1348
11.1551
11.1721
11.1876
11.2063
11.2301
11.2578
11.2867
11.3159
11.3437
11.3682
11.3878
11.4008
11.4097
11.4213
11.4406
11.4719
11.5112
11.5482
11.5716
11.5787
11.5759
11.5754
11.5898
11.6223
11.6616
11.6916
11.704
11.7052
11.7055
11.7186
11.7488
11.7828
11.8044
11.8076
11.8032
11.8024
11.8158
11.8464
11.8819
11.9037
11.9049
11.8968
11.892
11.902
11.9287
11.9598
11.9779
11.9792
11.9736
11.9729
11.9853
12.0111
12.034
12.0411
12.0338
12.0228
12.022
12.035
12.0522
12.0621
12.0597
12.0475
12.0334
12.0255
12.023
1
1
1
1
1
1
1
1
1
1
1
1
1
1
1
1
1
1
1
1
1
1
1
1
1
1
1
1
1
1
1
1
1
1
1
1
1
1
1
1
1
1
1
1
1
1
1
1
1
1
1
1
1
1
1
1
1
1
1
1
1
1
1
1
1
1
1
1
1
1
1
1
1
1
1
1
1
1
1
1
1
1
1
1
1
1
1
1
1
1
1
1
1
1
1
1
1
1
1
4.06287
10.0339
10.4098
10.3993
10.4265
10.4743
10.5346
10.5945
10.6406
10.6652
10.6701
10.6671
10.6808
10.7202
10.7702
10.8184
10.8575
10.8824
10.8945
10.9026
10.9172
10.9424
10.9725
11.0081
11.0514
11.0911
11.1218
11.1419
11.1545
11.1633
11.1737
11.1954
11.2271
11.2618
11.2933
11.32
11.3423
11.3608
11.378
11.3938
11.4088
11.4267
11.4482
11.4755
11.507
11.5363
11.5567
11.5671
11.5711
11.5784
11.5975
11.6275
11.6606
11.6852
11.6962
11.6989
11.7027
11.7183
11.7476
11.7788
11.7982
11.8017
11.7991
11.8002
11.8142
11.8444
11.8796
11.9026
11.9064
11.9001
11.8955
11.9019
11.9221
11.9489
11.9682
11.974
11.9727
11.974
11.9853
12.0069
12.0273
12.0353
12.0307
12.0223
12.0217
12.0324
12.0467
12.0551
12.0534
12.0432
12.0314
12.0243
12.0227
1
1
1
1
1
1
1
1
1
1
1
1
1
1
1
1
1
1
1
1
1
1
1
1
1
1
1
1
1
1
1
1
1
1
1
1
1
1
1
1
1
1
1
1
1
1
1
1
1
1
1
1
1
1
1
1
1
1
1
1
1
1
1
1
1
1
1
1
1
1
1
1
1
1
1
1
1
1
1
1
1
1
1
1
1
1
1
1
1
1
1
1
1
1
1
1
1
1
1
3.92964
9.99979
10.4166
10.3943
10.4145
10.4623
10.5268
10.5919
10.643
10.6706
10.6748
10.6675
10.673
10.7082
10.7595
10.813
10.8597
10.8913
10.9047
10.907
10.9121
10.9275
10.9538
10.9981
11.0522
11.0992
11.1323
11.1479
11.1512
11.1519
11.1573
11.1849
11.2263
11.2684
11.3018
11.3243
11.3387
11.349
11.3635
11.3838
11.408
11.4346
11.4587
11.4809
11.5023
11.5222
11.5391
11.5534
11.5667
11.5842
11.6071
11.6325
11.6569
11.6749
11.6858
11.6929
11.7029
11.7217
11.7482
11.7731
11.7878
11.7918
11.7934
11.8001
11.8172
11.8458
11.8766
11.8974
11.9034
11.9006
11.898
11.9028
11.9175
11.9387
11.9567
11.9664
11.9704
11.975
11.9854
12.0025
12.0196
12.0282
12.0269
12.022
12.0218
12.0293
12.0396
12.0462
12.0456
12.0386
12.0299
12.0233
12.0223
1
1
1
1
1
1
1
1
1
1
1
1
1
1
1
1
1
1
1
1
1
1
1
1
1
1
1
1
1
1
1
1
1
1
1
1
1
1
1
1
1
1
1
1
1
1
1
1
1
1
1
1
1
1
1
1
1
1
1
1
1
1
1
1
1
1
1
1
1
1
1
1
1
1
1
1
1
1
1
1
1
1
1
1
1
1
1
1
1
1
1
1
1
1
1
1
1
1
1
3.78106
9.93525
10.4206
10.3937
10.4089
10.454
10.5202
10.5886
10.6434
10.6732
10.6758
10.6661
10.6651
10.6976
10.7505
10.8096
10.8618
10.8975
10.9111
10.9087
10.9044
10.9129
10.9381
10.9933
11.0554
11.1071
11.1405
11.1508
11.1456
11.1383
11.1395
11.1759
11.2271
11.2757
11.3107
11.3279
11.333
11.3354
11.3468
11.3725
11.4076
11.4434
11.4696
11.4856
11.4966
11.507
11.5204
11.5395
11.5641
11.5919
11.617
11.636
11.6504
11.6619
11.6732
11.6867
11.705
11.7281
11.7507
11.7666
11.7742
11.7782
11.7851
11.7995
11.8232
11.8511
11.8757
11.8905
11.8958
11.8968
11.8981
11.9037
11.9155
11.9309
11.9455
11.9565
11.9651
11.9738
11.9849
11.9989
12.0126
12.0207
12.0222
12.0208
12.0213
12.0255
12.0317
12.0362
12.0367
12.033
12.0276
12.0225
12.0224
1
1
1
1
1
1
1
1
1
1
1
1
1
1
1
1
1
1
1
1
1
1
1
1
1
1
1
1
1
1
1
1
1
1
1
1
1
1
1
1
1
1
1
1
1
1
1
1
1
1
1
1
1
1
1
1
1
1
1
1
1
1
1
1
1
1
1
1
1
1
1
1
1
1
1
1
1
1
1
1
1
1
1
1
1
1
1
1
1
1
1
1
1
1
1
1
1
1
1
3.61886
9.85534
10.4219
10.3952
10.4087
10.4512
10.5164
10.5846
10.6394
10.6694
10.6723
10.6633
10.6601
10.6911
10.7461
10.8091
10.8637
10.8999
10.9116
10.9048
10.8952
10.9016
10.9317
10.9949
11.0608
11.1126
11.1434
11.1479
11.1364
11.1228
11.1243
11.1711
11.229
11.2817
11.3166
11.3285
11.3257
11.3221
11.3314
11.3629
11.4081
11.4514
11.478
11.487
11.4887
11.4915
11.5023
11.5273
11.5631
11.5994
11.6246
11.6368
11.6418
11.6478
11.6596
11.6802
11.7079
11.7355
11.7537
11.7601
11.7604
11.7629
11.7744
11.7985
11.8298
11.8578
11.8757
11.8832
11.8858
11.8889
11.8949
11.9041
11.9153
11.9259
11.9355
11.9453
11.9566
11.9694
11.9831
11.9965
12.0072
12.0136
12.0163
12.0174
12.0189
12.0211
12.0237
12.026
12.0271
12.0262
12.0241
12.0214
12.0234
1
1
1
1
1
1
1
1
1
1
1
1
1
1
1
1
1
1
1
1
1
1
1
1
1
1
1
1
1
1
1
1
1
1
1
1
1
1
1
1
1
1
1
1
1
1
1
1
1
1
1
1
1
1
1
1
1
1
1
1
1
1
1
1
1
1
1
1
1
1
1
1
1
1
1
1
1
1
1
1
1
1
1
1
1
1
1
1
1
1
1
1
1
1
1
1
1
1
1
3.4358
9.76417
10.4253
10.4006
10.4119
10.4515
10.5137
10.579
10.6312
10.6603
10.6654
10.6604
10.6602
10.6908
10.7471
10.8106
10.8634
10.8966
10.9036
10.895
10.8867
10.8967
10.9348
11.001
11.0654
11.1134
11.139
11.1382
11.123
11.1074
11.1161
11.1709
11.2312
11.2845
11.3177
11.3253
11.3174
11.3099
11.3204
11.3581
11.4101
11.456
11.4807
11.4839
11.4796
11.4774
11.4875
11.5192
11.564
11.6045
11.6279
11.6335
11.632
11.6343
11.6468
11.6745
11.7106
11.7408
11.7549
11.7533
11.7483
11.7489
11.7642
11.7971
11.835
11.8628
11.875
11.876
11.8753
11.8789
11.8892
11.9035
11.9155
11.9225
11.9272
11.9337
11.9455
11.9621
11.9799
11.9949
12.0039
12.0073
12.0092
12.0113
12.0141
12.0158
12.0162
12.0162
12.0169
12.018
12.0191
12.02
12.025
1
1
1
1
1
1
1
1
1
1
1
1
1
1
1
1
1
1
1
1
1
1
1
1
1
1
1
1
1
1
1
1
1
1
1
1
1
1
1
1
1
1
1
1
1
1
1
1
1
1
1
1
1
1
1
1
1
1
1
1
1
1
1
1
1
1
1
1
1
1
1
1
1
1
1
1
1
1
1
1
1
1
1
1
1
1
1
1
1
1
1
1
1
1
1
1
1
1
1
3.23485
9.65687
10.4288
10.4106
10.4187
10.4525
10.509
10.5699
10.6198
10.6489
10.6577
10.6578
10.6637
10.6952
10.7505
10.8108
10.8594
10.8882
10.8911
10.8838
10.8811
10.8987
10.944
11.0086
11.0673
11.1091
11.1273
11.1218
11.1074
11.0971
11.1172
11.1758
11.2341
11.2831
11.3116
11.3153
11.3053
11.2994
11.3155
11.359
11.4124
11.4558
11.4767
11.476
11.4687
11.4648
11.4778
11.5157
11.5644
11.6048
11.6253
11.6265
11.6218
11.6229
11.6373
11.6705
11.7113
11.7417
11.752
11.7463
11.7385
11.7386
11.7571
11.7955
11.8369
11.8637
11.8717
11.8689
11.8657
11.8693
11.8825
11.9012
11.9146
11.9191
11.9195
11.9222
11.933
11.9526
11.9758
11.9934
12.0012
12.0018
12.0012
12.0029
12.0071
12.0097
12.0092
12.0072
12.0063
12.0083
12.0126
12.0182
12.0269
1
1
1
1
1
1
1
1
1
1
1
1
1
1
1
1
1
1
1
1
1
1
1
1
1
1
1
1
1
1
1
1
1
1
1
1
1
1
1
1
1
1
1
1
1
1
1
1
1
1
1
1
1
1
1
1
1
1
1
1
1
1
1
1
1
1
1
1
1
1
1
1
1
1
1
1
1
1
1
1
1
1
1
1
1
1
1
1
1
1
1
1
1
1
1
1
1
1
1
3.02245
9.53113
10.4316
10.4212
10.4262
10.4528
10.5021
10.5587
10.6079
10.6387
10.6515
10.656
10.6671
10.6995
10.7523
10.8077
10.8513
10.8754
10.8772
10.8737
10.8789
10.9052
10.9549
11.0148
11.066
11.0987
11.1077
11.1004
11.0924
11.0926
11.1257
11.1847
11.2377
11.2792
11.3005
11.3
11.2904
11.2921
11.3181
11.3652
11.415
11.4519
11.4663
11.463
11.4564
11.4553
11.475
11.5165
11.5628
11.5988
11.6152
11.6152
11.6115
11.6147
11.633
11.6687
11.7086
11.7364
11.7437
11.7377
11.7307
11.7328
11.7542
11.7933
11.8336
11.8587
11.8647
11.8611
11.8577
11.8619
11.8766
11.897
11.9109
11.9136
11.9111
11.9113
11.9211
11.9427
11.9705
11.991
11.998
11.9961
11.9926
11.9933
11.9985
12.0029
12.0025
11.9986
11.9953
11.9973
12.0046
12.0156
12.0286
1
1
1
1
1
1
1
1
1
1
1
1
1
1
1
1
1
1
1
1
1
1
1
1
1
1
1
1
1
1
1
1
1
1
1
1
1
1
1
1
1
1
1
1
1
1
1
1
1
1
1
1
1
1
1
1
1
1
1
1
1
1
1
1
1
1
1
1
1
1
1
1
1
1
1
1
1
1
1
1
1
1
1
1
1
1
1
1
1
1
1
1
1
1
1
1
1
1
1
2.80068
9.38621
10.4341
10.4298
10.4323
10.452
10.495
10.549
10.5986
10.6319
10.6479
10.6554
10.6693
10.7011
10.7506
10.801
10.84
10.8607
10.8648
10.8662
10.8798
10.9135
10.9635
11.0172
11.0594
11.082
11.0844
11.0791
11.0797
11.0929
11.1378
11.1945
11.2409
11.2725
11.2839
11.2804
11.2745
11.2869
11.3245
11.3735
11.4176
11.4454
11.4512
11.4466
11.4433
11.4495
11.4782
11.5206
11.5608
11.5883
11.5986
11.5993
11.601
11.6104
11.6343
11.6702
11.7048
11.7263
11.7302
11.7262
11.7236
11.7309
11.7554
11.7918
11.8269
11.8481
11.8534
11.8516
11.8509
11.8572
11.8728
11.8922
11.9041
11.9052
11.9016
11.9012
11.911
11.934
11.9644
11.9864
11.9931
11.9895
11.9839
11.9836
11.9896
11.9953
11.9954
11.99
11.9841
11.9853
11.9959
12.0123
12.029
1
1
1
1
1
1
1
1
1
1
1
1
1
1
1
1
1
1
1
1
1
1
1
1
1
1
1
1
1
1
1
1
1
1
1
1
1
1
1
1
1
1
1
1
1
1
1
1
1
1
1
1
1
1
1
1
1
1
1
1
1
1
1
1
1
1
1
1
1
1
1
1
1
1
1
1
1
1
1
1
1
1
1
1
1
1
1
1
1
1
1
1
1
1
1
1
1
1
1
2.57315
9.22316
10.4344
10.4345
10.4364
10.4518
10.4911
10.5437
10.5936
10.6286
10.6462
10.6547
10.6685
10.6987
10.7446
10.791
10.8267
10.8465
10.8544
10.8619
10.8823
10.9201
10.9681
11.0152
11.0484
11.0626
11.063
11.0617
11.0711
11.0983
11.1492
11.2024
11.2418
11.2628
11.2651
11.2596
11.2596
11.2851
11.3328
11.3817
11.4181
11.4343
11.4319
11.4267
11.4296
11.4471
11.4855
11.5267
11.5577
11.5735
11.5772
11.5797
11.589
11.609
11.6404
11.6748
11.7007
11.7124
11.7124
11.7112
11.7158
11.7312
11.7595
11.7921
11.8191
11.8341
11.8384
11.8402
11.8446
11.8546
11.8707
11.8865
11.8944
11.894
11.8909
11.8919
11.9032
11.9272
11.9574
11.9789
11.9853
11.9815
11.9754
11.9749
11.9807
11.9867
11.987
11.9805
11.9729
11.974
11.9871
12.0078
12.0273
1
1
1
1
1
1
1
1
1
1
1
1
1
1
1
1
1
1
1
1
1
1
1
1
1
1
1
1
1
1
1
1
1
1
1
1
1
1
1
1
1
1
1
1
1
1
1
1
1
1
1
1
1
1
1
1
1
1
1
1
1
1
1
1
1
1
1
1
1
1
1
1
1
1
1
1
1
1
1
1
1
1
1
1
1
1
1
1
1
1
1
1
1
1
1
1
1
1
1
2.34526
9.04019
10.4341
10.4346
10.4368
10.4521
10.4904
10.5421
10.592
10.6272
10.6447
10.653
10.6657
10.6943
10.7369
10.7798
10.8133
10.8331
10.8443
10.8575
10.8825
10.9218
10.9675
11.0086
11.0355
11.0451
11.0456
11.0502
11.0684
11.106
11.1582
11.207
11.239
11.2495
11.2459
11.2399
11.2479
11.2872
11.3406
11.3871
11.415
11.4187
11.411
11.4064
11.4165
11.4481
11.4943
11.5328
11.5538
11.557
11.5543
11.5582
11.5754
11.6073
11.647
11.68
11.6971
11.6978
11.6939
11.6945
11.7062
11.7312
11.764
11.793
11.8113
11.8185
11.8211
11.8264
11.8372
11.8528
11.8694
11.8804
11.8828
11.8806
11.879
11.8831
11.8974
11.9216
11.9492
11.9682
11.9744
11.9719
11.9674
11.9676
11.9723
11.9768
11.9765
11.9696
11.962
11.9641
11.9791
12.0021
12.0223
1
1
1
1
1
1
1
1
1
1
1
1
1
1
1
1
1
1
1
1
1
1
1
1
1
1
1
1
1
1
1
1
1
1
1
1
1
1
1
1
1
1
1
1
1
1
1
1
1
1
1
1
1
1
1
1
1
1
1
1
1
1
1
1
1
1
1
1
1
1
1
1
1
1
1
1
1
1
1
1
1
1
1
1
1
1
1
1
1
1
1
1
1
1
1
1
1
1
1
2.12598
8.8311
10.4321
10.4304
10.4352
10.4528
10.4908
10.5412
10.5897
10.6235
10.6403
10.6495
10.6631
10.6908
10.7309
10.7713
10.8028
10.8221
10.8345
10.8502
10.8776
10.9174
10.9616
10.9992
11.0227
11.0312
11.0343
11.0446
11.07
11.1121
11.1612
11.2038
11.2285
11.2318
11.2264
11.224
11.2421
11.2915
11.3464
11.3879
11.4071
11.4019
11.39
11.3879
11.407
11.4515
11.5016
11.5355
11.5471
11.5407
11.5328
11.5378
11.5624
11.6058
11.6524
11.6833
11.692
11.6846
11.6761
11.6775
11.6956
11.7298
11.7667
11.793
11.8039
11.8036
11.8035
11.8111
11.8283
11.85
11.8673
11.874
11.871
11.8664
11.8663
11.8747
11.8926
11.9165
11.9397
11.955
11.9609
11.9613
11.9602
11.9615
11.9642
11.9658
11.9636
11.957
11.9515
11.9559
11.9721
11.9951
12.0138
1
1
1
1
1
1
1
1
1
1
1
1
1
1
1
1
1
1
1
1
1
1
1
1
1
1
1
1
1
1
1
1
1
1
1
1
1
1
1
1
1
1
1
1
1
1
1
1
1
1
1
1
1
1
1
1
1
1
1
1
1
1
1
1
1
1
1
1
1
1
1
1
1
1
1
1
1
1
1
1
1
1
1
1
1
1
1
1
1
1
1
1
1
1
1
1
1
1
1
1.91608
8.58778
10.4298
10.4243
10.4332
10.453
10.49
10.5374
10.5825
10.6141
10.632
10.6446
10.6626
10.6914
10.729
10.7662
10.7943
10.8111
10.8226
10.8387
10.8672
10.9082
10.9527
10.9898
11.0126
11.0224
11.0292
11.044
11.0736
11.1156
11.1604
11.1963
11.2144
11.214
11.2094
11.2139
11.242
11.2955
11.348
11.3836
11.3944
11.3848
11.3714
11.3743
11.404
11.4555
11.5047
11.5334
11.536
11.5246
11.5142
11.5211
11.5522
11.6034
11.6535
11.6826
11.6842
11.6717
11.6603
11.6625
11.6855
11.7262
11.7664
11.7905
11.7953
11.79
11.787
11.7957
11.818
11.8451
11.8631
11.8661
11.8596
11.8527
11.8537
11.8661
11.8876
11.9108
11.9292
11.94
11.9459
11.95
11.9535
11.9561
11.9561
11.9535
11.9486
11.943
11.9413
11.9488
11.9658
11.9869
12.0021
1
1
1
1
1
1
1
1
1
1
1
1
1
1
1
1
1
1
1
1
1
1
1
1
1
1
1
1
1
1
1
1
1
1
1
1
1
1
1
1
1
1
1
1
1
1
1
1
1
1
1
1
1
1
1
1
1
1
1
1
1
1
1
1
1
1
1
1
1
1
1
1
1
1
1
1
1
1
1
1
1
1
1
1
1
1
1
1
1
1
1
1
1
1
1
1
1
1
1
1.72038
8.30902
10.4248
10.4158
10.4295
10.4521
10.4882
10.5317
10.5725
10.6021
10.6222
10.6394
10.6623
10.6936
10.7301
10.7643
10.7889
10.8024
10.8117
10.827
10.8556
10.8972
10.9428
10.9813
11.0057
11.0179
11.0279
11.0452
11.075
11.1145
11.1548
11.1847
11.1979
11.1973
11.197
11.2092
11.2451
11.2971
11.344
11.3728
11.3772
11.3665
11.3561
11.3675
11.4061
11.4583
11.502
11.5241
11.5213
11.5081
11.4992
11.5102
11.5476
11.6011
11.6493
11.6746
11.672
11.6579
11.6464
11.651
11.678
11.7212
11.7618
11.7838
11.7847
11.7769
11.7724
11.782
11.8073
11.8376
11.8559
11.857
11.8485
11.8402
11.8421
11.8574
11.8812
11.9033
11.9173
11.9244
11.9304
11.938
11.9463
11.9505
11.9476
11.9402
11.9323
11.9281
11.931
11.9423
11.9597
11.9776
11.9885
1
1
1
1
1
1
1
1
1
1
1
1
1
1
1
1
1
1
1
1
1
1
1
1
1
1
1
1
1
1
1
1
1
1
1
1
1
1
1
1
1
1
1
1
1
1
1
1
1
1
1
1
1
1
1
1
1
1
1
1
1
1
1
1
1
1
1
1
1
1
1
1
1
1
1
1
1
1
1
1
1
1
1
1
1
1
1
1
1
1
1
1
1
1
1
1
1
1
1
1.54179
7.99198
10.4157
10.4101
10.4296
10.4528
10.4863
10.525
10.5614
10.5891
10.6111
10.6332
10.6608
10.6947
10.7314
10.764
10.7861
10.7967
10.8036
10.8174
10.8449
10.8861
10.9328
10.9734
11.0007
11.0158
11.0277
11.0455
11.0734
11.1097
11.1456
11.1714
11.1823
11.1835
11.189
11.209
11.2483
11.2959
11.335
11.3564
11.3567
11.3476
11.3457
11.3684
11.4133
11.4617
11.4959
11.5073
11.4993
11.487
11.4846
11.5043
11.5483
11.6008
11.6423
11.6604
11.6553
11.6424
11.6343
11.6438
11.6749
11.7172
11.7537
11.7717
11.7706
11.763
11.7597
11.7709
11.7974
11.8276
11.8454
11.8462
11.8374
11.8292
11.8319
11.8484
11.8726
11.893
11.9036
11.9085
11.9151
11.9259
11.9381
11.9436
11.9382
11.9266
11.9158
11.9128
11.9202
11.9352
11.9526
11.967
11.9743
1
1
1
1
1
1
1
1
1
1
1
1
1
1
1
1
1
1
1
1
1
1
1
1
1
1
1
1
1
1
1
1
1
1
1
1
1
1
1
1
1
1
1
1
1
1
1
1
1
1
1
1
1
1
1
1
1
1
1
1
1
1
1
1
1
1
1
1
1
1
1
1
1
1
1
1
1
1
1
1
1
1
1
1
1
1
1
1
1
1
1
1
1
1
1
1
1
1
1
1.37591
7.63652
10.3988
10.4039
10.428
10.451
10.482
10.5171
10.5512
10.5784
10.6009
10.6241
10.6544
10.6907
10.7289
10.7619
10.7834
10.793
10.7987
10.8112
10.8373
10.8771
10.9236
10.9655
10.9952
11.0128
11.0259
11.0432
11.0687
11.1014
11.1338
11.1571
11.1679
11.1729
11.1843
11.2098
11.2491
11.2917
11.3227
11.3367
11.335
11.3288
11.3378
11.3732
11.4217
11.4642
11.4881
11.4878
11.4755
11.4652
11.4721
11.5038
11.5535
11.6024
11.6337
11.6421
11.6345
11.6248
11.6232
11.6406
11.6751
11.7136
11.7423
11.7546
11.7529
11.748
11.7488
11.763
11.7891
11.8163
11.832
11.8329
11.8256
11.8191
11.8226
11.8391
11.8618
11.8798
11.8886
11.8929
11.9006
11.914
11.9286
11.9347
11.9277
11.9131
11.9
11.8978
11.9084
11.9264
11.9439
11.9554
11.9601
1
1
1
1
1
1
1
1
1
1
1
1
1
1
1
1
1
1
1
1
1
1
1
1
1
1
1
1
1
1
1
1
1
1
1
1
1
1
1
1
1
1
1
1
1
1
1
1
1
1
1
1
1
1
1
1
1
1
1
1
1
1
1
1
1
1
1
1
1
1
1
1
1
1
1
1
1
1
1
1
1
1
1
1
1
1
1
1
1
1
1
1
1
1
1
1
1
1
1
1.2181
7.26141
10.3833
10.3998
10.4231
10.4468
10.4772
10.511
10.5444
10.5728
10.5959
10.6167
10.6436
10.6803
10.7213
10.7573
10.7806
10.791
10.7968
10.8087
10.8329
10.8704
10.9154
10.9574
10.9883
11.0075
11.0216
11.0388
11.0627
11.0927
11.1226
11.1442
11.1557
11.1643
11.1802
11.2086
11.2463
11.2833
11.3075
11.3156
11.3137
11.3122
11.3333
11.3785
11.428
11.4643
11.4777
11.4675
11.4507
11.4426
11.4597
11.5037
11.5578
11.6018
11.6228
11.6213
11.6112
11.6047
11.6126
11.6399
11.6772
11.7102
11.7293
11.7347
11.7328
11.7319
11.7393
11.7578
11.7823
11.804
11.8159
11.8168
11.8123
11.8089
11.814
11.8295
11.8492
11.8646
11.8728
11.8779
11.8871
11.9022
11.9172
11.923
11.9154
11.8994
11.8854
11.8835
11.8958
11.9154
11.9331
11.9428
11.9466
1
1
1
1
1
1
1
1
1
1
1
1
1
1
1
1
1
1
1
1
1
1
1
1
1
1
1
1
1
1
1
1
1
1
1
1
1
1
1
1
1
1
1
1
1
1
1
1
1
1
1
1
1
1
1
1
1
1
1
1
1
1
1
1
1
1
1
1
1
1
1
1
1
1
1
1
1
1
1
1
1
1
1
1
1
1
1
1
1
1
1
1
1
1
1
1
1
1
1
1.05787
6.85758
10.362
10.3912
10.4107
10.434
10.4635
10.4981
10.5343
10.5674
10.5944
10.6164
10.6396
10.6699
10.7066
10.7423
10.7689
10.7845
10.7948
10.8087
10.8314
10.8655
10.9075
10.9479
10.9784
10.9979
11.0129
11.0311
11.0551
11.0836
11.1117
11.1325
11.1451
11.1568
11.1754
11.2048
11.2402
11.2727
11.2921
11.2973
11.2962
11.301
11.3315
11.3801
11.4282
11.4588
11.4633
11.4475
11.4283
11.4234
11.45
11.5034
11.5597
11.598
11.6096
11.6009
11.5887
11.5851
11.6024
11.6392
11.6782
11.7048
11.7145
11.7132
11.7109
11.7152
11.7309
11.7539
11.7756
11.7908
11.7981
11.799
11.7975
11.7983
11.8056
11.8194
11.8353
11.848
11.8562
11.8631
11.8741
11.89
11.904
11.9088
11.9012
11.8855
11.8719
11.8702
11.8827
11.9025
11.9201
11.9293
11.9335
1
1
1
1
1
1
1
1
1
1
1
1
1
1
1
1
1
1
1
1
1
1
1
1
1
1
1
1
1
1
1
1
1
1
1
1
1
1
1
1
1
1
1
1
1
1
1
1
1
1
1
1
1
1
1
1
1
1
1
1
1
1
1
1
1
1
1
1
1
1
1
1
1
1
1
1
1
1
1
1
1
1
1
1
1
1
1
1
1
1
1
1
1
1
1
1
1
1
1
1.00173
6.39109
10.2991
10.3725
10.3951
10.4213
10.4504
10.4858
10.5246
10.5614
10.5918
10.6153
10.6372
10.6641
10.6972
10.7312
10.7588
10.7782
10.7939
10.8106
10.8322
10.8619
10.8986
10.9353
10.9643
10.9846
11.0027
11.0242
11.0489
11.0763
11.1029
11.123
11.1364
11.1501
11.1695
11.1974
11.2291
11.2573
11.2741
11.2801
11.2835
11.2958
11.3299
11.3762
11.4205
11.4466
11.4463
11.4287
11.4104
11.4104
11.4433
11.4997
11.5554
11.5889
11.594
11.5817
11.5684
11.5684
11.5937
11.6364
11.6749
11.6948
11.697
11.6919
11.6897
11.6998
11.7235
11.7494
11.7677
11.7766
11.7797
11.7802
11.7818
11.7873
11.7966
11.8083
11.8202
11.8306
11.8392
11.8486
11.8616
11.877
11.8891
11.8926
11.8853
11.8713
11.8592
11.8578
11.8693
11.8881
11.9052
11.9147
11.92
1
1
1
1
1
1
1
1
1
1
1
1
1
1
1
1
1
1
1
1
1
1
1
1
1
1
1
1
1
1
1
1
1
1
1
1
1
1
1
1
1
1
1
1
1
1
1
1
1
1
1
1
1
1
1
1
1
1
1
1
1
1
1
1
1
1
1
1
1
1
1
1
1
1
1
1
1
1
1
1
1
1
1
1
1
1
1
1
1
1
1
1
1
1
1
1
1
1
1
1.00001
5.84129
10.2317
10.358
10.3799
10.4088
10.4367
10.4725
10.5131
10.5537
10.5882
10.6139
10.6345
10.6569
10.6853
10.7177
10.7479
10.7738
10.796
10.8145
10.8323
10.855
10.8848
10.9178
10.9473
10.9718
10.9958
11.0204
11.0443
11.0688
11.0926
11.1115
11.1265
11.1434
11.1638
11.1889
11.2157
11.2389
11.2544
11.2646
11.2762
11.296
11.3302
11.3699
11.4058
11.4265
11.4254
11.4112
11.3989
11.4058
11.441
11.4935
11.5438
11.5721
11.5745
11.5624
11.5513
11.5566
11.5874
11.6308
11.6657
11.6802
11.6779
11.6716
11.6712
11.6871
11.7157
11.7422
11.7567
11.761
11.7613
11.7616
11.7662
11.7756
11.7862
11.7955
11.8039
11.8124
11.8218
11.8341
11.8491
11.8633
11.8729
11.8746
11.8677
11.8562
11.8467
11.8459
11.8561
11.873
11.889
11.8988
11.9051
1
1
1
1
1
1
1
1
1
1
1
1
1
1
1
1
1
1
1
1
1
1
1
1
1
1
1
1
1
1
1
1
1
1
1
1
1
1
1
1
1
1
1
1
1
1
1
1
1
1
1
1
1
1
1
1
1
1
1
1
1
1
1
1
1
1
1
1
1
1
1
1
1
1
1
1
1
1
1
1
1
1
1
1
1
1
1
1
1
1
1
1
1
1
1
1
1
1
1
1
5.26573
10.1524
10.3464
10.3681
10.4002
10.4278
10.462
10.5032
10.5453
10.582
10.609
10.6287
10.6479
10.6733
10.706
10.7406
10.773
10.7986
10.8152
10.8266
10.8417
10.8658
10.8981
10.932
10.9638
10.9931
11.0185
11.0391
11.0584
11.0784
11.0969
11.1155
11.137
11.1585
11.18
11.2005
11.2182
11.2339
11.2511
11.2722
11.2983
11.33
11.3608
11.3856
11.3995
11.4008
11.395
11.3934
11.408
11.4419
11.486
11.5261
11.5484
11.551
11.5429
11.5381
11.5504
11.5833
11.6222
11.6504
11.6604
11.6577
11.653
11.6566
11.677
11.7067
11.7308
11.742
11.7438
11.743
11.744
11.7515
11.7635
11.774
11.7808
11.7862
11.7935
11.8042
11.8198
11.8365
11.849
11.8556
11.8552
11.8487
11.8401
11.8339
11.8342
11.8431
11.8577
11.8719
11.8814
11.8881
1
1
1
1
1
1
1
1
1
1
1
1
1
1
1
1
1
1
1
1
1
1
1
1
1
1
1
1
1
1
1
1
1
1
1
1
1
1
1
1
1
1
1
1
1
1
1
1
1
1
1
1
1
1
1
1
1
1
1
1
1
1
1
1
1
1
1
1
1
1
1
1
1
1
1
1
1
1
1
1
1
1
1
1
1
1
1
1
1
1
1
1
1
1
1
1
1
1
1
1
4.68005
10.0403
10.334
10.3589
10.3939
10.4217
10.4537
10.4934
10.5361
10.5735
10.601
10.6207
10.6394
10.6641
10.6977
10.7362
10.7715
10.7964
10.8089
10.8145
10.8248
10.847
10.8818
10.9215
10.9595
10.9919
11.0157
11.0315
11.0449
11.0616
11.0808
11.1043
11.1302
11.1525
11.1707
11.1855
11.1985
11.2152
11.2392
11.2686
11.2989
11.3273
11.3493
11.3636
11.3717
11.3752
11.3801
11.3913
11.4129
11.4432
11.4766
11.5047
11.5205
11.5244
11.5236
11.5291
11.5491
11.5799
11.61
11.6299
11.6368
11.6361
11.6361
11.6458
11.6689
11.6959
11.7153
11.7234
11.7248
11.7251
11.7281
11.7383
11.751
11.7598
11.7639
11.7671
11.7741
11.7866
11.8055
11.8232
11.8338
11.8374
11.8346
11.8285
11.823
11.8202
11.8221
11.8302
11.8423
11.8541
11.8626
11.8689
1
1
1
1
1
1
1
1
1
1
1
1
1
1
1
1
1
1
1
1
1
1
1
1
1
1
1
1
1
1
1
1
1
1
1
1
1
1
1
1
1
1
1
1
1
1
1
1
1
1
1
1
1
1
1
1
1
1
1
1
1
1
1
1
1
1
1
1
1
1
1
1
1
1
1
1
1
1
1
1
1
1
1
1
1
1
1
1
1
1
1
1
1
1
1
1
1
1
1
1
4.09514
9.88834
10.3255
10.355
10.3921
10.4203
10.4494
10.4859
10.5273
10.564
10.5913
10.6113
10.6308
10.6566
10.6908
10.7303
10.7657
10.7889
10.7979
10.8004
10.8097
10.8323
10.8697
10.9134
10.955
10.9884
11.01
11.0219
11.0315
11.0458
11.0658
11.0925
11.1208
11.1435
11.16
11.1721
11.1829
11.2008
11.2284
11.2617
11.2939
11.3197
11.3356
11.3435
11.3477
11.3529
11.3668
11.3891
11.4153
11.4417
11.4649
11.4818
11.4912
11.4967
11.5057
11.5241
11.5496
11.5755
11.5951
11.6063
11.6108
11.6136
11.6211
11.6378
11.6611
11.6825
11.696
11.7015
11.7041
11.7073
11.7138
11.7262
11.7378
11.7436
11.7447
11.7465
11.7542
11.7692
11.7911
11.8092
11.8175
11.8182
11.8131
11.8075
11.8051
11.8055
11.8092
11.8168
11.8266
11.8357
11.8424
11.8479
1
1
1
1
1
1
1
1
1
1
1
1
1
1
1
1
1
1
1
1
1
1
1
1
1
1
1
1
1
1
1
1
1
1
1
1
1
1
1
1
1
1
1
1
1
1
1
1
1
1
1
1
1
1
1
1
1
1
1
1
1
1
1
1
1
1
1
1
1
1
1
1
1
1
1
1
1
1
1
1
1
1
1
1
1
1
1
1
1
1
1
1
1
1
1
1
1
1
1
1
3.51532
9.68319
10.3307
10.3587
10.3925
10.4195
10.4461
10.4786
10.5177
10.5528
10.5809
10.6035
10.6259
10.6527
10.6853
10.7224
10.7559
10.777
10.7852
10.7891
10.8002
10.8242
10.862
10.9061
10.9477
10.9798
10.9997
11.0111
11.0206
11.0344
11.054
11.0799
11.107
11.1295
11.1471
11.1606
11.173
11.1925
11.2192
11.2507
11.2816
11.3056
11.3199
11.3267
11.3306
11.3377
11.3561
11.3828
11.4104
11.4333
11.4494
11.4589
11.4638
11.4717
11.4907
11.5195
11.548
11.5679
11.5779
11.582
11.5847
11.5914
11.6072
11.6296
11.6516
11.6666
11.6738
11.6776
11.6825
11.6899
11.7011
11.7145
11.7233
11.7252
11.7235
11.7248
11.7342
11.7524
11.7763
11.794
11.7998
11.7976
11.7909
11.7862
11.7867
11.79
11.795
11.8021
11.8098
11.8165
11.8211
11.826
1
1
1
1
1
1
1
1
1
1
1
1
1
1
1
1
1
1
1
1
1
1
1
1
1
1
1
1
1
1
1
1
1
1
1
1
1
1
1
1
1
1
1
1
1
1
1
1
1
1
1
1
1
1
1
1
1
1
1
1
1
1
1
1
1
1
1
1
1
1
1
1
1
1
1
1
1
1
1
1
1
1
1
1
1
1
1
1
1
1
1
1
1
1
1
1
1
1
1
1
2.96209
9.41659
10.3369
10.3677
10.3975
10.4209
10.4434
10.4727
10.5092
10.5428
10.5723
10.5975
10.6225
10.6492
10.6783
10.7114
10.7423
10.7625
10.7725
10.7808
10.7961
10.821
10.8561
10.8967
10.9348
10.9644
10.9851
11.0001
11.013
11.0279
11.0457
11.0668
11.0889
11.1103
11.131
11.1499
11.1675
11.1886
11.212
11.2371
11.2631
11.2853
11.3018
11.3125
11.3202
11.3304
11.3492
11.3736
11.398
11.4169
11.4293
11.4363
11.4407
11.4529
11.4796
11.5133
11.541
11.5554
11.5586
11.5583
11.5603
11.5713
11.5941
11.6198
11.6389
11.6478
11.6501
11.6529
11.6607
11.673
11.6887
11.7021
11.707
11.7047
11.7009
11.7026
11.7145
11.7359
11.761
11.7772
11.7804
11.7758
11.7684
11.765
11.7681
11.7735
11.7791
11.7854
11.7911
11.7959
11.7992
11.8043
1
1
1
1
1
1
1
1
1
1
1
1
1
1
1
1
1
1
1
1
1
1
1
1
1
1
1
1
1
1
1
1
1
1
1
1
1
1
1
1
1
1
1
1
1
1
1
1
1
1
1
1
1
1
1
1
1
1
1
1
1
1
1
1
1
1
1
1
1
1
1
1
1
1
1
1
1
1
1
1
1
1
1
1
1
1
1
1
1
1
1
1
1
1
1
1
1
1
1
1
2.45947
9.06501
10.3559
10.3679
10.3954
10.4168
10.4376
10.4644
10.4982
10.5319
10.563
10.591
10.6182
10.644
10.6706
10.7004
10.729
10.7492
10.7618
10.7742
10.7932
10.8185
10.8505
10.8857
10.9184
10.9451
10.9681
10.9886
11.0067
11.0237
11.0395
11.0545
11.0703
11.0891
11.1128
11.1386
11.1628
11.186
11.2055
11.2229
11.242
11.2617
11.2817
11.2997
11.3143
11.3279
11.344
11.3616
11.3785
11.393
11.405
11.414
11.4228
11.4419
11.4727
11.5052
11.5281
11.5374
11.5373
11.5355
11.5387
11.5544
11.5811
11.6073
11.6227
11.6263
11.6259
11.6285
11.6392
11.6566
11.6758
11.6876
11.6883
11.6826
11.6773
11.6803
11.6953
11.7197
11.7446
11.7585
11.759
11.7527
11.7457
11.7442
11.7494
11.756
11.7613
11.766
11.7699
11.7736
11.777
11.7832
1
1
1
1
1
1
1
1
1
1
1
1
1
1
1
1
1
1
1
1
1
1
1
1
1
1
1
1
1
1
1
1
1
1
1
1
1
1
1
1
1
1
1
1
1
1
1
1
1
1
1
1
1
1
1
1
1
1
1
1
1
1
1
1
1
1
1
1
1
1
1
1
1
1
1
1
1
1
1
1
1
1
1
1
1
1
1
1
1
1
1
1
1
1
1
1
1
1
1
1
2.00887
8.63042
10.3687
10.3778
10.4006
10.4168
10.4354
10.4597
10.4895
10.5216
10.5526
10.5814
10.6099
10.6359
10.6618
10.6898
10.7169
10.7375
10.7524
10.7682
10.7894
10.8147
10.8444
10.8751
10.9022
10.9255
10.9495
10.9746
10.9983
11.018
11.0329
11.0438