/*--------------------------------*- C++ -*----------------------------------*\
  =========                 |
  \\      /  F ield         | OpenFOAM: The Open Source CFD Toolbox
   \\    /   O peration     | Website:  https://openfoam.org
    \\  /    A nd           | Version:  7
     \\/     M anipulation  |
\*---------------------------------------------------------------------------*/
FoamFile
{
    version     2.0;
    format      ascii;
    class       volScalarField;
    location    "2.5";
    object      rho;
}
// * * * * * * * * * * * * * * * * * * * * * * * * * * * * * * * * * * * * * //

dimensions      [1 -3 0 0 0 0 0];

internalField   nonuniform List<scalar> 
258048
(
1.40001
1.40001
1.40001
1.40001
1.40001
1.40001
1.40001
1.40001
1.40001
1.40001
1.40001
1.40001
1.40001
1.40001
1.40001
1.40001
1.40001
1.40001
1.40001
1.40001
1.40001
1.40001
1.40001
1.40001
1.40001
1.40001
1.40001
1.40001
1.40001
1.40001
1.40001
1.40001
1.40001
1.40001
1.40001
1.40001
1.40001
1.40001
1.40001
1.40001
1.40001
1.40001
1.40001
1.40001
1.40001
1.40001
1.40001
1.40001
1.40001
1.40001
1.40001
1.40001
1.40001
1.40001
1.40001
1.40001
1.40001
1.40001
1.40001
1.40001
1.40001
1.40001
1.40001
1.40001
1.40001
1.40001
1.40001
1.40001
1.40001
1.40001
1.40001
1.40001
1.40001
1.40001
1.40001
1.40001
1.40001
1.40001
1.40001
1.40001
1.40001
1.40001
1.40001
1.40001
1.40001
1.40001
1.40001
1.40001
1.40001
1.40001
1.40001
1.40001
1.40001
1.40001
1.40001
1.40001
1.40001
1.40001
1.40001
3.16139
5.29025
5.41743
5.43
5.44866
5.46333
5.47442
5.48013
5.48306
5.48773
5.49887
5.52009
5.54082
5.55754
5.5673
5.56828
5.56344
5.55925
5.56273
5.57991
5.60714
5.63264
5.65063
5.65835
5.65585
5.65084
5.65015
5.65999
5.67955
5.70023
5.71622
5.72418
5.7256
5.72532
5.72667
5.73252
5.74345
5.75693
5.76937
5.77807
5.78306
5.78725
5.79455
5.80711
5.82296
5.83759
5.84611
5.84738
5.84479
5.8429
5.84644
5.85736
5.87239
5.88599
5.89396
5.8966
5.89708
5.89938
5.90574
5.91479
5.92291
5.92732
5.92879
5.92999
5.93252
5.93671
5.94077
5.94267
5.94218
5.94147
5.94416
5.95236
5.96423
5.97505
5.98054
5.98109
5.97992
5.97996
5.98327
5.98923
5.99491
5.99702
5.99481
5.99091
5.98886
5.98953
5.99067
5.98904
5.98218
5.97009
5.95573
5.94421
5.93693
1.40001
1.40001
1.40001
1.40001
1.40001
1.40001
1.40001
1.40001
1.40001
1.40001
1.40001
1.40001
1.40001
1.40001
1.40001
1.40001
1.40001
1.40001
1.40001
1.40001
1.40001
1.40001
1.40001
1.40001
1.40001
1.40001
1.40001
1.40001
1.40001
1.40001
1.40001
1.40001
1.40001
1.40001
1.40001
1.40001
1.40001
1.40001
1.40001
1.40001
1.40001
1.40001
1.40001
1.40001
1.40001
1.40001
1.40001
1.40001
1.40001
1.40001
1.40001
1.40001
1.40001
1.40001
1.40001
1.40001
1.40001
1.40001
1.40001
1.40001
1.40001
1.40001
1.40001
1.40001
1.40001
1.40001
1.40001
1.40001
1.40001
1.40001
1.40001
1.40001
1.40001
1.40001
1.40001
1.40001
1.40001
1.40001
1.40001
1.40001
1.40001
1.40001
1.40001
1.40001
1.40001
1.40001
1.40001
1.40001
1.40001
1.40001
1.40001
1.40001
1.40001
1.40001
1.40001
1.40001
1.40001
1.40001
1.40001
3.1471
5.29588
5.41767
5.42756
5.44331
5.45758
5.47128
5.48138
5.4877
5.49298
5.50118
5.5179
5.53722
5.55348
5.56409
5.56772
5.56556
5.56301
5.56596
5.58044
5.60542
5.63033
5.64843
5.65675
5.65592
5.65252
5.65256
5.66149
5.67909
5.69824
5.71341
5.72191
5.72487
5.72598
5.72836
5.73467
5.74539
5.75823
5.76995
5.778
5.78248
5.78626
5.79333
5.80613
5.82249
5.83761
5.84627
5.84737
5.84456
5.84241
5.84589
5.85718
5.87267
5.88635
5.89396
5.89618
5.89649
5.899
5.90583
5.91512
5.92288
5.92642
5.92725
5.92855
5.93191
5.93725
5.94216
5.94421
5.94302
5.94135
5.94339
5.9518
5.96429
5.9754
5.98073
5.98084
5.97941
5.97963
5.98345
5.99002
5.99572
5.99727
5.99443
5.9902
5.98844
5.98969
5.99118
5.98942
5.982
5.96934
5.95497
5.94408
5.93756
1.40001
1.40001
1.40001
1.40001
1.40001
1.40001
1.40001
1.40001
1.40001
1.40001
1.40001
1.40001
1.40001
1.40001
1.40001
1.40001
1.40001
1.40001
1.40001
1.40001
1.40001
1.40001
1.40001
1.40001
1.40001
1.40001
1.40001
1.40001
1.40001
1.40001
1.40001
1.40001
1.40001
1.40001
1.40001
1.40001
1.40001
1.40001
1.40001
1.40001
1.40001
1.40001
1.40001
1.40001
1.40001
1.40001
1.40001
1.40001
1.40001
1.40001
1.40001
1.40001
1.40001
1.40001
1.40001
1.40001
1.40001
1.40001
1.40001
1.40001
1.40001
1.40001
1.40001
1.40001
1.40001
1.40001
1.40001
1.40001
1.40001
1.40001
1.40001
1.40001
1.40001
1.40001
1.40001
1.40001
1.40001
1.40001
1.40001
1.40001
1.40001
1.40001
1.40001
1.40001
1.40001
1.40001
1.40001
1.40001
1.40001
1.40001
1.40001
1.40001
1.40001
1.40001
1.40001
1.40001
1.40001
1.40001
1.40001
3.12051
5.30824
5.41984
5.42403
5.43589
5.44984
5.46606
5.48065
5.49146
5.49854
5.50515
5.51773
5.53434
5.54946
5.56052
5.56602
5.56682
5.5669
5.5703
5.58259
5.6046
5.6277
5.64506
5.65356
5.65468
5.65363
5.65547
5.6644
5.67992
5.69663
5.70992
5.718
5.72213
5.72499
5.7292
5.73679
5.74782
5.7601
5.77095
5.77815
5.78195
5.78527
5.79189
5.80466
5.82142
5.83708
5.8461
5.84727
5.84433
5.84186
5.84527
5.85696
5.87295
5.88663
5.8938
5.89548
5.89546
5.89815
5.90575
5.91571
5.92332
5.92584
5.92556
5.92615
5.92978
5.93648
5.94324
5.94632
5.94467
5.94186
5.94235
5.94998
5.963
5.97482
5.98038
5.98008
5.97808
5.97808
5.98238
5.99008
5.99631
5.99739
5.99362
5.98856
5.98693
5.98904
5.99129
5.98967
5.9817
5.9682
5.95361
5.9434
5.93796
1.40001
1.40001
1.40001
1.40001
1.40001
1.40001
1.40001
1.40001
1.40001
1.40001
1.40001
1.40001
1.40001
1.40001
1.40001
1.40001
1.40001
1.40001
1.40001
1.40001
1.40001
1.40001
1.40001
1.40001
1.40001
1.40001
1.40001
1.40001
1.40001
1.40001
1.40001
1.40001
1.40001
1.40001
1.40001
1.40001
1.40001
1.40001
1.40001
1.40001
1.40001
1.40001
1.40001
1.40001
1.40001
1.40001
1.40001
1.40001
1.40001
1.40001
1.40001
1.40001
1.40001
1.40001
1.40001
1.40001
1.40001
1.40001
1.40001
1.40001
1.40001
1.40001
1.40001
1.40001
1.40001
1.40001
1.40001
1.40001
1.40001
1.40001
1.40001
1.40001
1.40001
1.40001
1.40001
1.40001
1.40001
1.40001
1.40001
1.40001
1.40001
1.40001
1.40001
1.40001
1.40001
1.40001
1.40001
1.40001
1.40001
1.40001
1.40001
1.40001
1.40001
1.40001
1.40001
1.40001
1.40001
1.40001
1.40001
3.08821
5.31114
5.42149
5.42093
5.42922
5.44377
5.46245
5.48083
5.49519
5.50341
5.50805
5.51628
5.53003
5.5447
5.55713
5.56542
5.56941
5.57166
5.57499
5.58457
5.60292
5.62375
5.64043
5.64987
5.65357
5.65567
5.65945
5.6678
5.68054
5.69431
5.70577
5.71384
5.71949
5.72464
5.73084
5.7395
5.75052
5.76202
5.77178
5.77814
5.78138
5.78447
5.79083
5.80328
5.82001
5.83583
5.84511
5.84653
5.84373
5.84135
5.84507
5.85726
5.87351
5.88678
5.89316
5.89418
5.89386
5.89686
5.90555
5.91632
5.92364
5.92503
5.92371
5.92349
5.92723
5.93555
5.94433
5.94866
5.94676
5.9429
5.94195
5.94823
5.96121
5.97375
5.97984
5.97956
5.97734
5.97708
5.98165
5.99022
5.99681
5.99748
5.99296
5.9873
5.98573
5.98846
5.99137
5.9898
5.98124
5.96699
5.9523
5.94281
5.93854
1.40001
1.40001
1.40001
1.40001
1.40001
1.40001
1.40001
1.40001
1.40001
1.40001
1.40001
1.40001
1.40001
1.40001
1.40001
1.40001
1.40001
1.40001
1.40001
1.40001
1.40001
1.40001
1.40001
1.40001
1.40001
1.40001
1.40001
1.40001
1.40001
1.40001
1.40001
1.40001
1.40001
1.40001
1.40001
1.40001
1.40001
1.40001
1.40001
1.40001
1.40001
1.40001
1.40001
1.40001
1.40001
1.40001
1.40001
1.40001
1.40001
1.40001
1.40001
1.40001
1.40001
1.40001
1.40001
1.40001
1.40001
1.40001
1.40001
1.40001
1.40001
1.40001
1.40001
1.40001
1.40001
1.40001
1.40001
1.40001
1.40001
1.40001
1.40001
1.40001
1.40001
1.40001
1.40001
1.40001
1.40001
1.40001
1.40001
1.40001
1.40001
1.40001
1.40001
1.40001
1.40001
1.40001
1.40001
1.40001
1.40001
1.40001
1.40001
1.40001
1.40001
1.40001
1.40001
1.40001
1.40001
1.40001
1.40001
3.05217
5.30604
5.42042
5.41813
5.42487
5.44007
5.4602
5.48025
5.49647
5.50588
5.50956
5.51443
5.52559
5.54026
5.55439
5.56537
5.57223
5.57619
5.57955
5.58687
5.60143
5.61958
5.63525
5.64557
5.65231
5.6578
5.66361
5.6714
5.68141
5.69206
5.70158
5.70972
5.71704
5.72446
5.73244
5.74189
5.75257
5.76314
5.77202
5.77777
5.78087
5.7842
5.79061
5.80256
5.81847
5.83368
5.84292
5.84491
5.84277
5.84124
5.84568
5.85816
5.87403
5.88654
5.89196
5.89241
5.89195
5.89538
5.90514
5.91656
5.92372
5.92427
5.92203
5.92105
5.92471
5.93423
5.94475
5.95045
5.94895
5.94449
5.94227
5.94686
5.95876
5.97155
5.97834
5.97865
5.97672
5.9765
5.98105
5.98972
5.99637
5.99692
5.99211
5.98626
5.9847
5.98765
5.99081
5.98917
5.9802
5.96552
5.95094
5.94209
5.9388
1.40001
1.40001
1.40001
1.40001
1.40001
1.40001
1.40001
1.40001
1.40001
1.40001
1.40001
1.40001
1.40001
1.40001
1.40001
1.40001
1.40001
1.40001
1.40001
1.40001
1.40001
1.40001
1.40001
1.40001
1.40001
1.40001
1.40001
1.40001
1.40001
1.40001
1.40001
1.40001
1.40001
1.40001
1.40001
1.40001
1.40001
1.40001
1.40001
1.40001
1.40001
1.40001
1.40001
1.40001
1.40001
1.40001
1.40001
1.40001
1.40001
1.40001
1.40001
1.40001
1.40001
1.40001
1.40001
1.40001
1.40001
1.40001
1.40001
1.40001
1.40001
1.40001
1.40001
1.40001
1.40001
1.40001
1.40001
1.40001
1.40001
1.40001
1.40001
1.40001
1.40001
1.40001
1.40001
1.40001
1.40001
1.40001
1.40001
1.40001
1.40001
1.40001
1.40001
1.40001
1.40001
1.40001
1.40001
1.40001
1.40001
1.40001
1.40001
1.40001
1.40001
1.40001
1.40001
1.40001
1.40001
1.40001
1.40001
3.00987
5.2993
5.41728
5.41355
5.42119
5.43737
5.45845
5.47954
5.49645
5.50657
5.50986
5.51219
5.52093
5.53579
5.55167
5.56519
5.57472
5.58033
5.58388
5.58925
5.59988
5.61479
5.6291
5.64064
5.6512
5.66022
5.66779
5.67486
5.68214
5.68961
5.69723
5.70585
5.71534
5.72508
5.73442
5.74383
5.75334
5.76253
5.77071
5.77661
5.7807
5.78525
5.79209
5.80303
5.81698
5.83036
5.83907
5.84203
5.84141
5.84172
5.84752
5.85975
5.87429
5.8854
5.88996
5.89027
5.89007
5.89421
5.90446
5.91594
5.92287
5.9231
5.92056
5.91923
5.92288
5.93297
5.94466
5.95131
5.95049
5.94619
5.9433
5.94625
5.95614
5.96828
5.97584
5.97741
5.97636
5.97659
5.98085
5.98871
5.99492
5.99555
5.99115
5.98568
5.98412
5.98678
5.98959
5.98764
5.97852
5.96398
5.94983
5.94146
5.93882
1.40001
1.40001
1.40001
1.40001
1.40001
1.40001
1.40001
1.40001
1.40001
1.40001
1.40001
1.40001
1.40001
1.40001
1.40001
1.40001
1.40001
1.40001
1.40001
1.40001
1.40001
1.40001
1.40001
1.40001
1.40001
1.40001
1.40001
1.40001
1.40001
1.40001
1.40001
1.40001
1.40001
1.40001
1.40001
1.40001
1.40001
1.40001
1.40001
1.40001
1.40001
1.40001
1.40001
1.40001
1.40001
1.40001
1.40001
1.40001
1.40001
1.40001
1.40001
1.40001
1.40001
1.40001
1.40001
1.40001
1.40001
1.40001
1.40001
1.40001
1.40001
1.40001
1.40001
1.40001
1.40001
1.40001
1.40001
1.40001
1.40001
1.40001
1.40001
1.40001
1.40001
1.40001
1.40001
1.40001
1.40001
1.40001
1.40001
1.40001
1.40001
1.40001
1.40001
1.40001
1.40001
1.40001
1.40001
1.40001
1.40001
1.40001
1.40001
1.40001
1.40001
1.40001
1.40001
1.40001
1.40001
1.40001
1.40001
2.95831
5.29119
5.41658
5.40964
5.41777
5.43478
5.45697
5.47921
5.49696
5.50741
5.51032
5.51047
5.51636
5.53108
5.54854
5.56463
5.57711
5.58484
5.58878
5.59192
5.59828
5.60922
5.62185
5.63557
5.65067
5.6633
5.67243
5.67834
5.68259
5.68663
5.69213
5.70185
5.71432
5.72672
5.73712
5.74566
5.75311
5.76012
5.76745
5.77448
5.78086
5.78767
5.79521
5.80458
5.81561
5.82617
5.83378
5.83793
5.83982
5.843
5.85043
5.86174
5.8741
5.88325
5.88728
5.88812
5.88906
5.89403
5.9039
5.91443
5.92062
5.92099
5.91911
5.91842
5.92228
5.93224
5.94387
5.95091
5.951
5.94737
5.94455
5.94626
5.95378
5.96438
5.97243
5.97563
5.97607
5.9771
5.98091
5.98727
5.99254
5.99343
5.99004
5.98548
5.98391
5.9858
5.98766
5.98519
5.97624
5.9624
5.94904
5.94098
5.93868
1.40001
1.40001
1.40001
1.40001
1.40001
1.40001
1.40001
1.40001
1.40001
1.40001
1.40001
1.40001
1.40001
1.40001
1.40001
1.40001
1.40001
1.40001
1.40001
1.40001
1.40001
1.40001
1.40001
1.40001
1.40001
1.40001
1.40001
1.40001
1.40001
1.40001
1.40001
1.40001
1.40001
1.40001
1.40001
1.40001
1.40001
1.40001
1.40001
1.40001
1.40001
1.40001
1.40001
1.40001
1.40001
1.40001
1.40001
1.40001
1.40001
1.40001
1.40001
1.40001
1.40001
1.40001
1.40001
1.40001
1.40001
1.40001
1.40001
1.40001
1.40001
1.40001
1.40001
1.40001
1.40001
1.40001
1.40001
1.40001
1.40001
1.40001
1.40001
1.40001
1.40001
1.40001
1.40001
1.40001
1.40001
1.40001
1.40001
1.40001
1.40001
1.40001
1.40001
1.40001
1.40001
1.40001
1.40001
1.40001
1.40001
1.40001
1.40001
1.40001
1.40001
1.40001
1.40001
1.40001
1.40001
1.40001
1.40001
2.89696
5.2772
5.41876
5.40922
5.41565
5.43251
5.45575
5.47927
5.49808
5.50867
5.51078
5.50905
5.51199
5.52604
5.54495
5.56376
5.57937
5.58951
5.59355
5.59408
5.59636
5.60328
5.61442
5.63155
5.651
5.66683
5.67731
5.68175
5.68247
5.68304
5.68622
5.69792
5.71393
5.72915
5.74051
5.74774
5.75238
5.75631
5.76254
5.77127
5.78105
5.79095
5.79935
5.80683
5.81417
5.82127
5.82757
5.83311
5.83836
5.84515
5.85398
5.86369
5.87295
5.87979
5.88377
5.88609
5.88914
5.89519
5.90401
5.91228
5.91685
5.91748
5.91705
5.91824
5.92333
5.93275
5.94281
5.94903
5.94985
5.94751
5.94538
5.94657
5.95217
5.96072
5.96838
5.97296
5.97534
5.97755
5.981
5.98574
5.98982
5.99087
5.98866
5.98536
5.98389
5.98463
5.98516
5.98204
5.97343
5.96068
5.94838
5.94058
5.9385
1.40001
1.40001
1.40001
1.40001
1.40001
1.40001
1.40001
1.40001
1.40001
1.40001
1.40001
1.40001
1.40001
1.40001
1.40001
1.40001
1.40001
1.40001
1.40001
1.40001
1.40001
1.40001
1.40001
1.40001
1.40001
1.40001
1.40001
1.40001
1.40001
1.40001
1.40001
1.40001
1.40001
1.40001
1.40001
1.40001
1.40001
1.40001
1.40001
1.40001
1.40001
1.40001
1.40001
1.40001
1.40001
1.40001
1.40001
1.40001
1.40001
1.40001
1.40001
1.40001
1.40001
1.40001
1.40001
1.40001
1.40001
1.40001
1.40001
1.40001
1.40001
1.40001
1.40001
1.40001
1.40001
1.40001
1.40001
1.40001
1.40001
1.40001
1.40001
1.40001
1.40001
1.40001
1.40001
1.40001
1.40001
1.40001
1.40001
1.40001
1.40001
1.40001
1.40001
1.40001
1.40001
1.40001
1.40001
1.40001
1.40001
1.40001
1.40001
1.40001
1.40001
1.40001
1.40001
1.40001
1.40001
1.40001
1.40001
2.82737
5.25115
5.41955
5.4096
5.41544
5.43197
5.45558
5.47969
5.49892
5.50943
5.51048
5.50739
5.50796
5.52141
5.54181
5.56335
5.58151
5.59326
5.59705
5.59548
5.59382
5.59763
5.60814
5.62938
5.65215
5.67028
5.68132
5.68408
5.6817
5.67895
5.68008
5.69453
5.71399
5.7318
5.74407
5.7497
5.75115
5.75208
5.757
5.76759
5.78121
5.7944
5.8036
5.80889
5.81247
5.81606
5.82105
5.82832
5.83758
5.84807
5.85763
5.86506
5.87079
5.87536
5.87954
5.88402
5.88989
5.89739
5.90476
5.90983
5.91189
5.91252
5.91396
5.918
5.92547
5.93461
5.94242
5.94653
5.94707
5.94611
5.94535
5.94686
5.95147
5.95797
5.96438
5.96952
5.97362
5.97725
5.98084
5.98446
5.98731
5.98818
5.98694
5.98488
5.98365
5.98331
5.98236
5.97845
5.97018
5.95862
5.94752
5.9402
5.93848
1.40001
1.40001
1.40001
1.40001
1.40001
1.40001
1.40001
1.40001
1.40001
1.40001
1.40001
1.40001
1.40001
1.40001
1.40001
1.40001
1.40001
1.40001
1.40001
1.40001
1.40001
1.40001
1.40001
1.40001
1.40001
1.40001
1.40001
1.40001
1.40001
1.40001
1.40001
1.40001
1.40001
1.40001
1.40001
1.40001
1.40001
1.40001
1.40001
1.40001
1.40001
1.40001
1.40001
1.40001
1.40001
1.40001
1.40001
1.40001
1.40001
1.40001
1.40001
1.40001
1.40001
1.40001
1.40001
1.40001
1.40001
1.40001
1.40001
1.40001
1.40001
1.40001
1.40001
1.40001
1.40001
1.40001
1.40001
1.40001
1.40001
1.40001
1.40001
1.40001
1.40001
1.40001
1.40001
1.40001
1.40001
1.40001
1.40001
1.40001
1.40001
1.40001
1.40001
1.40001
1.40001
1.40001
1.40001
1.40001
1.40001
1.40001
1.40001
1.40001
1.40001
1.40001
1.40001
1.40001
1.40001
1.40001
1.40001
2.75041
5.2196
5.41898
5.41003
5.41627
5.43304
5.45663
5.48043
5.49885
5.50837
5.509
5.50576
5.5055
5.51857
5.54028
5.56393
5.58344
5.59556
5.59857
5.59494
5.59085
5.59342
5.60539
5.62963
5.65418
5.67281
5.68337
5.68434
5.67944
5.67423
5.67503
5.69278
5.71454
5.73399
5.74651
5.75054
5.74941
5.74818
5.75212
5.7645
5.7816
5.79749
5.8069
5.80981
5.81011
5.81089
5.81483
5.82417
5.83745
5.85095
5.86052
5.86543
5.86782
5.87047
5.87485
5.88177
5.89089
5.89988
5.90566
5.90736
5.90687
5.90699
5.91007
5.91764
5.92782
5.93691
5.94232
5.94388
5.94347
5.94315
5.9441
5.94698
5.95146
5.95625
5.96086
5.96565
5.97081
5.97584
5.98023
5.98359
5.98541
5.98564
5.98482
5.98366
5.98277
5.9817
5.97951
5.97476
5.96667
5.95614
5.94625
5.93975
5.93867
1.40001
1.40001
1.40001
1.40001
1.40001
1.40001
1.40001
1.40001
1.40001
1.40001
1.40001
1.40001
1.40001
1.40001
1.40001
1.40001
1.40001
1.40001
1.40001
1.40001
1.40001
1.40001
1.40001
1.40001
1.40001
1.40001
1.40001
1.40001
1.40001
1.40001
1.40001
1.40001
1.40001
1.40001
1.40001
1.40001
1.40001
1.40001
1.40001
1.40001
1.40001
1.40001
1.40001
1.40001
1.40001
1.40001
1.40001
1.40001
1.40001
1.40001
1.40001
1.40001
1.40001
1.40001
1.40001
1.40001
1.40001
1.40001
1.40001
1.40001
1.40001
1.40001
1.40001
1.40001
1.40001
1.40001
1.40001
1.40001
1.40001
1.40001
1.40001
1.40001
1.40001
1.40001
1.40001
1.40001
1.40001
1.40001
1.40001
1.40001
1.40001
1.40001
1.40001
1.40001
1.40001
1.40001
1.40001
1.40001
1.40001
1.40001
1.40001
1.40001
1.40001
1.40001
1.40001
1.40001
1.40001
1.40001
1.40001
2.66385
5.18683
5.41924
5.41159
5.41762
5.4343
5.45764
5.48073
5.49804
5.5063
5.50674
5.50453
5.50508
5.51811
5.54075
5.56522
5.58459
5.59589
5.59719
5.59246
5.58833
5.59164
5.60619
5.63161
5.65594
5.67362
5.68276
5.68201
5.67563
5.66946
5.67251
5.69281
5.71536
5.73511
5.74724
5.75001
5.74714
5.74455
5.7488
5.76314
5.78253
5.79932
5.80815
5.80908
5.80728
5.80633
5.80994
5.82159
5.83803
5.85296
5.86188
5.8644
5.86437
5.86563
5.87032
5.8797
5.8917
5.90153
5.90588
5.90479
5.90243
5.90195
5.90642
5.91714
5.92965
5.93859
5.942
5.9413
5.93973
5.93951
5.94196
5.9468
5.9516
5.95505
5.95793
5.96159
5.967
5.97333
5.97914
5.98301
5.98421
5.98344
5.98225
5.98147
5.98104
5.97982
5.97681
5.97125
5.96299
5.95316
5.94443
5.93917
5.93909
1.40001
1.40001
1.40001
1.40001
1.40001
1.40001
1.40001
1.40001
1.40001
1.40001
1.40001
1.40001
1.40001
1.40001
1.40001
1.40001
1.40001
1.40001
1.40001
1.40001
1.40001
1.40001
1.40001
1.40001
1.40001
1.40001
1.40001
1.40001
1.40001
1.40001
1.40001
1.40001
1.40001
1.40001
1.40001
1.40001
1.40001
1.40001
1.40001
1.40001
1.40001
1.40001
1.40001
1.40001
1.40001
1.40001
1.40001
1.40001
1.40001
1.40001
1.40001
1.40001
1.40001
1.40001
1.40001
1.40001
1.40001
1.40001
1.40001
1.40001
1.40001
1.40001
1.40001
1.40001
1.40001
1.40001
1.40001
1.40001
1.40001
1.40001
1.40001
1.40001
1.40001
1.40001
1.40001
1.40001
1.40001
1.40001
1.40001
1.40001
1.40001
1.40001
1.40001
1.40001
1.40001
1.40001
1.40001
1.40001
1.40001
1.40001
1.40001
1.40001
1.40001
1.40001
1.40001
1.40001
1.40001
1.40001
1.40001
2.56844
5.15138
5.42027
5.41484
5.41989
5.43488
5.45703
5.47938
5.4963
5.50434
5.50506
5.50385
5.50596
5.51922
5.54197
5.56593
5.58434
5.59439
5.59428
5.58976
5.58712
5.5923
5.60924
5.63424
5.65682
5.67268
5.67941
5.67706
5.67104
5.66655
5.67334
5.6948
5.71654
5.73475
5.74544
5.74695
5.7434
5.74139
5.74755
5.76381
5.78357
5.79945
5.80704
5.80665
5.80382
5.80222
5.80688
5.82063
5.83838
5.85324
5.86104
5.86195
5.86084
5.86159
5.86688
5.87816
5.89182
5.90174
5.90471
5.90207
5.89872
5.89815
5.90381
5.91654
5.9303
5.93889
5.94082
5.9388
5.93632
5.93606
5.93958
5.94605
5.9513
5.95381
5.95525
5.95753
5.96258
5.97003
5.97769
5.98246
5.98328
5.98148
5.97938
5.97848
5.9785
5.97762
5.97431
5.968
5.95916
5.94964
5.94211
5.93844
5.93962
1.40001
1.40001
1.40001
1.40001
1.40001
1.40001
1.40001
1.40001
1.40001
1.40001
1.40001
1.40001
1.40001
1.40001
1.40001
1.40001
1.40001
1.40001
1.40001
1.40001
1.40001
1.40001
1.40001
1.40001
1.40001
1.40001
1.40001
1.40001
1.40001
1.40001
1.40001
1.40001
1.40001
1.40001
1.40001
1.40001
1.40001
1.40001
1.40001
1.40001
1.40001
1.40001
1.40001
1.40001
1.40001
1.40001
1.40001
1.40001
1.40001
1.40001
1.40001
1.40001
1.40001
1.40001
1.40001
1.40001
1.40001
1.40001
1.40001
1.40001
1.40001
1.40001
1.40001
1.40001
1.40001
1.40001
1.40001
1.40001
1.40001
1.40001
1.40001
1.40001
1.40001
1.40001
1.40001
1.40001
1.40001
1.40001
1.40001
1.40001
1.40001
1.40001
1.40001
1.40001
1.40001
1.40001
1.40001
1.40001
1.40001
1.40001
1.40001
1.40001
1.40001
1.40001
1.40001
1.40001
1.40001
1.40001
1.40001
2.46617
5.11074
5.42202
5.41875
5.42226
5.43454
5.45477
5.47661
5.4942
5.50312
5.50458
5.50404
5.50736
5.52053
5.54246
5.5651
5.58229
5.59107
5.59077
5.58769
5.58723
5.59489
5.61316
5.63643
5.65658
5.6695
5.67316
5.6704
5.66674
5.66587
5.67699
5.69845
5.7181
5.73363
5.74178
5.7419
5.73864
5.73944
5.74911
5.76659
5.78491
5.79842
5.80368
5.80239
5.7998
5.79928
5.80621
5.82118
5.83802
5.85126
5.85751
5.85797
5.85715
5.85865
5.86527
5.87744
5.89076
5.89974
5.90158
5.89876
5.89571
5.89592
5.90274
5.91578
5.92915
5.93716
5.93837
5.93602
5.93343
5.93339
5.93753
5.94463
5.94999
5.95185
5.95232
5.95368
5.95833
5.96654
5.97582
5.98159
5.98221
5.97948
5.97631
5.97506
5.97542
5.97515
5.97194
5.96492
5.95516
5.94561
5.93923
5.93745
5.94006
1.40001
1.40001
1.40001
1.40001
1.40001
1.40001
1.40001
1.40001
1.40001
1.40001
1.40001
1.40001
1.40001
1.40001
1.40001
1.40001
1.40001
1.40001
1.40001
1.40001
1.40001
1.40001
1.40001
1.40001
1.40001
1.40001
1.40001
1.40001
1.40001
1.40001
1.40001
1.40001
1.40001
1.40001
1.40001
1.40001
1.40001
1.40001
1.40001
1.40001
1.40001
1.40001
1.40001
1.40001
1.40001
1.40001
1.40001
1.40001
1.40001
1.40001
1.40001
1.40001
1.40001
1.40001
1.40001
1.40001
1.40001
1.40001
1.40001
1.40001
1.40001
1.40001
1.40001
1.40001
1.40001
1.40001
1.40001
1.40001
1.40001
1.40001
1.40001
1.40001
1.40001
1.40001
1.40001
1.40001
1.40001
1.40001
1.40001
1.40001
1.40001
1.40001
1.40001
1.40001
1.40001
1.40001
1.40001
1.40001
1.40001
1.40001
1.40001
1.40001
1.40001
1.40001
1.40001
1.40001
1.40001
1.40001
1.40001
2.35748
5.06327
5.42422
5.42255
5.42439
5.43369
5.45207
5.47387
5.49249
5.50283
5.50528
5.50509
5.5087
5.52105
5.54156
5.56259
5.5787
5.58682
5.58759
5.58635
5.58849
5.59856
5.6165
5.63727
5.65449
5.66408
5.66558
5.66388
5.66353
5.66704
5.68229
5.70259
5.71965
5.73158
5.73625
5.73546
5.73368
5.73845
5.7523
5.77026
5.78639
5.79653
5.79864
5.7969
5.79559
5.79767
5.80781
5.82306
5.83754
5.84763
5.85163
5.85223
5.85334
5.8572
5.86573
5.87788
5.88925
5.89592
5.8965
5.89443
5.89298
5.89506
5.90313
5.91526
5.92679
5.9334
5.93432
5.93261
5.93094
5.93166
5.93622
5.94295
5.9476
5.94891
5.94903
5.95012
5.95477
5.96346
5.97363
5.98
5.98052
5.97717
5.97321
5.97161
5.97222
5.97245
5.9694
5.96181
5.95111
5.94127
5.93603
5.93617
5.94014
1.40001
1.40001
1.40001
1.40001
1.40001
1.40001
1.40001
1.40001
1.40001
1.40001
1.40001
1.40001
1.40001
1.40001
1.40001
1.40001
1.40001
1.40001
1.40001
1.40001
1.40001
1.40001
1.40001
1.40001
1.40001
1.40001
1.40001
1.40001
1.40001
1.40001
1.40001
1.40001
1.40001
1.40001
1.40001
1.40001
1.40001
1.40001
1.40001
1.40001
1.40001
1.40001
1.40001
1.40001
1.40001
1.40001
1.40001
1.40001
1.40001
1.40001
1.40001
1.40001
1.40001
1.40001
1.40001
1.40001
1.40001
1.40001
1.40001
1.40001
1.40001
1.40001
1.40001
1.40001
1.40001
1.40001
1.40001
1.40001
1.40001
1.40001
1.40001
1.40001
1.40001
1.40001
1.40001
1.40001
1.40001
1.40001
1.40001
1.40001
1.40001
1.40001
1.40001
1.40001
1.40001
1.40001
1.40001
1.40001
1.40001
1.40001
1.40001
1.40001
1.40001
1.40001
1.40001
1.40001
1.40001
1.40001
1.40001
2.24443
5.00908
5.42613
5.42533
5.42619
5.43334
5.45045
5.47227
5.49163
5.50313
5.50648
5.50638
5.50933
5.52048
5.53925
5.55882
5.57408
5.58231
5.58477
5.5858
5.59045
5.60183
5.61854
5.6367
5.65083
5.65763
5.65874
5.65869
5.66172
5.6703
5.68752
5.70614
5.72043
5.72849
5.72993
5.72865
5.72913
5.73884
5.75624
5.77399
5.78717
5.79306
5.79219
5.79024
5.79121
5.79738
5.81107
5.82567
5.83666
5.84239
5.84388
5.84513
5.84905
5.85669
5.86784
5.87947
5.88765
5.89078
5.88993
5.88875
5.88986
5.89498
5.90455
5.91537
5.92405
5.92839
5.92893
5.92843
5.9286
5.93075
5.93555
5.94098
5.94416
5.94495
5.94523
5.94687
5.95208
5.96104
5.97114
5.97735
5.97777
5.97432
5.97018
5.9685
5.96908
5.96939
5.96638
5.9584
5.94711
5.9372
5.93277
5.93444
5.93949
1.40001
1.40001
1.40001
1.40001
1.40001
1.40001
1.40001
1.40001
1.40001
1.40001
1.40001
1.40001
1.40001
1.40001
1.40001
1.40001
1.40001
1.40001
1.40001
1.40001
1.40001
1.40001
1.40001
1.40001
1.40001
1.40001
1.40001
1.40001
1.40001
1.40001
1.40001
1.40001
1.40001
1.40001
1.40001
1.40001
1.40001
1.40001
1.40001
1.40001
1.40001
1.40001
1.40001
1.40001
1.40001
1.40001
1.40001
1.40001
1.40001
1.40001
1.40001
1.40001
1.40001
1.40001
1.40001
1.40001
1.40001
1.40001
1.40001
1.40001
1.40001
1.40001
1.40001
1.40001
1.40001
1.40001
1.40001
1.40001
1.40001
1.40001
1.40001
1.40001
1.40001
1.40001
1.40001
1.40001
1.40001
1.40001
1.40001
1.40001
1.40001
1.40001
1.40001
1.40001
1.40001
1.40001
1.40001
1.40001
1.40001
1.40001
1.40001
1.40001
1.40001
1.40001
1.40001
1.40001
1.40001
1.40001
1.40001
2.1293
4.9468
5.42856
5.42677
5.427
5.43348
5.45007
5.47166
5.49125
5.5034
5.50733
5.50746
5.5099
5.51993
5.53685
5.55485
5.56927
5.57775
5.5817
5.585
5.59155
5.60346
5.61906
5.63476
5.64642
5.65164
5.65313
5.65551
5.66194
5.67428
5.69172
5.70851
5.72002
5.72419
5.72353
5.72221
5.72579
5.74056
5.75995
5.77667
5.78671
5.78802
5.78517
5.78347
5.78707
5.79836
5.81477
5.82824
5.83548
5.83655
5.83559
5.83729
5.84403
5.85594
5.87009
5.88119
5.88628
5.88546
5.88302
5.8825
5.88612
5.89479
5.9061
5.91568
5.92124
5.92282
5.92274
5.92342
5.92587
5.93012
5.93511
5.93878
5.94002
5.94024
5.94101
5.94388
5.95018
5.95912
5.96826
5.97361
5.97391
5.97092
5.96731
5.96587
5.96613
5.96591
5.96262
5.95452
5.94326
5.93368
5.92983
5.93233
5.93769
1.40001
1.40001
1.40001
1.40001
1.40001
1.40001
1.40001
1.40001
1.40001
1.40001
1.40001
1.40001
1.40001
1.40001
1.40001
1.40001
1.40001
1.40001
1.40001
1.40001
1.40001
1.40001
1.40001
1.40001
1.40001
1.40001
1.40001
1.40001
1.40001
1.40001
1.40001
1.40001
1.40001
1.40001
1.40001
1.40001
1.40001
1.40001
1.40001
1.40001
1.40001
1.40001
1.40001
1.40001
1.40001
1.40001
1.40001
1.40001
1.40001
1.40001
1.40001
1.40001
1.40001
1.40001
1.40001
1.40001
1.40001
1.40001
1.40001
1.40001
1.40001
1.40001
1.40001
1.40001
1.40001
1.40001
1.40001
1.40001
1.40001
1.40001
1.40001
1.40001
1.40001
1.40001
1.40001
1.40001
1.40001
1.40001
1.40001
1.40001
1.40001
1.40001
1.40001
1.40001
1.40001
1.40001
1.40001
1.40001
1.40001
1.40001
1.40001
1.40001
1.40001
1.40001
1.40001
1.40001
1.40001
1.40001
1.40001
2.01604
4.87295
5.43048
5.427
5.42743
5.43421
5.4503
5.47101
5.48998
5.50211
5.5066
5.50777
5.51087
5.52034
5.53582
5.55229
5.56565
5.57386
5.57841
5.58297
5.59081
5.60324
5.61822
5.6322
5.64227
5.64703
5.64962
5.65428
5.66343
5.67747
5.69373
5.70816
5.71686
5.71833
5.71707
5.71708
5.72453
5.74294
5.76278
5.77766
5.78451
5.78247
5.77806
5.77729
5.78414
5.8001
5.81787
5.82957
5.83334
5.83074
5.82775
5.82974
5.83909
5.85513
5.87177
5.8822
5.8844
5.88058
5.87636
5.87612
5.88204
5.89414
5.90694
5.91558
5.91854
5.91758
5.91649
5.9179
5.92266
5.92911
5.93439
5.93644
5.93577
5.93524
5.93653
5.94102
5.94862
5.95738
5.96499
5.96899
5.96914
5.96713
5.96475
5.96367
5.96331
5.96201
5.95802
5.95007
5.93956
5.93075
5.92728
5.92979
5.93461
1.40001
1.40001
1.40001
1.40001
1.40001
1.40001
1.40001
1.40001
1.40001
1.40001
1.40001
1.40001
1.40001
1.40001
1.40001
1.40001
1.40001
1.40001
1.40001
1.40001
1.40001
1.40001
1.40001
1.40001
1.40001
1.40001
1.40001
1.40001
1.40001
1.40001
1.40001
1.40001
1.40001
1.40001
1.40001
1.40001
1.40001
1.40001
1.40001
1.40001
1.40001
1.40001
1.40001
1.40001
1.40001
1.40001
1.40001
1.40001
1.40001
1.40001
1.40001
1.40001
1.40001
1.40001
1.40001
1.40001
1.40001
1.40001
1.40001
1.40001
1.40001
1.40001
1.40001
1.40001
1.40001
1.40001
1.40001
1.40001
1.40001
1.40001
1.40001
1.40001
1.40001
1.40001
1.40001
1.40001
1.40001
1.40001
1.40001
1.40001
1.40001
1.40001
1.40001
1.40001
1.40001
1.40001
1.40001
1.40001
1.40001
1.40001
1.40001
1.40001
1.40001
1.40001
1.40001
1.40001
1.40001
1.40001
1.40001
1.9059
4.78483
5.43129
5.42656
5.42823
5.43539
5.45034
5.46922
5.48661
5.49826
5.50402
5.5074
5.51279
5.52278
5.53696
5.5516
5.56307
5.56999
5.57422
5.5792
5.58799
5.60131
5.61652
5.6301
5.63947
5.64453
5.64833
5.65467
5.66538
5.67962
5.69448
5.70635
5.71248
5.71256
5.71153
5.714
5.72522
5.74499
5.76399
5.77676
5.78045
5.77675
5.77173
5.77276
5.78344
5.80194
5.81932
5.82918
5.82964
5.82489
5.82089
5.82347
5.83509
5.85398
5.87194
5.88187
5.8816
5.87575
5.87045
5.8705
5.8782
5.89265
5.90664
5.91453
5.91546
5.91278
5.91064
5.9124
5.91894
5.92734
5.93287
5.93367
5.93171
5.93035
5.9321
5.93814
5.94693
5.95543
5.96134
5.96379
5.96386
5.96308
5.96231
5.96177
5.96051
5.95764
5.95265
5.94513
5.93597
5.92827
5.92501
5.92684
5.93042
1.40001
1.40001
1.40001
1.40001
1.40001
1.40001
1.40001
1.40001
1.40001
1.40001
1.40001
1.40001
1.40001
1.40001
1.40001
1.40001
1.40001
1.40001
1.40001
1.40001
1.40001
1.40001
1.40001
1.40001
1.40001
1.40001
1.40001
1.40001
1.40001
1.40001
1.40001
1.40001
1.40001
1.40001
1.40001
1.40001
1.40001
1.40001
1.40001
1.40001
1.40001
1.40001
1.40001
1.40001
1.40001
1.40001
1.40001
1.40001
1.40001
1.40001
1.40001
1.40001
1.40001
1.40001
1.40001
1.40001
1.40001
1.40001
1.40001
1.40001
1.40001
1.40001
1.40001
1.40001
1.40001
1.40001
1.40001
1.40001
1.40001
1.40001
1.40001
1.40001
1.40001
1.40001
1.40001
1.40001
1.40001
1.40001
1.40001
1.40001
1.40001
1.40001
1.40001
1.40001
1.40001
1.40001
1.40001
1.40001
1.40001
1.40001
1.40001
1.40001
1.40001
1.40001
1.40001
1.40001
1.40001
1.40001
1.40001
1.80144
4.68151
5.42975
5.42522
5.42916
5.43698
5.45055
5.46702
5.48237
5.49339
5.50069
5.50671
5.51478
5.52611
5.53965
5.55262
5.56202
5.56712
5.57029
5.57513
5.58447
5.59855
5.61454
5.6286
5.63822
5.64383
5.64847
5.65552
5.66634
5.67991
5.69332
5.70304
5.70733
5.70724
5.70768
5.71305
5.72697
5.74617
5.76316
5.77334
5.77463
5.77041
5.76649
5.77056
5.78455
5.80333
5.81868
5.82615
5.82449
5.81888
5.81529
5.81921
5.83314
5.85291
5.87023
5.87886
5.87715
5.87061
5.86528
5.86609
5.87524
5.89064
5.90477
5.91205
5.91175
5.90805
5.90543
5.9075
5.91512
5.92461
5.93035
5.93048
5.9278
5.92593
5.92804
5.93514
5.9447
5.95282
5.95719
5.95834
5.95845
5.95884
5.95971
5.95983
5.95754
5.95289
5.94686
5.93988
5.9324
5.92598
5.92282
5.92351
5.92558
1.40001
1.40001
1.40001
1.40001
1.40001
1.40001
1.40001
1.40001
1.40001
1.40001
1.40001
1.40001
1.40001
1.40001
1.40001
1.40001
1.40001
1.40001
1.40001
1.40001
1.40001
1.40001
1.40001
1.40001
1.40001
1.40001
1.40001
1.40001
1.40001
1.40001
1.40001
1.40001
1.40001
1.40001
1.40001
1.40001
1.40001
1.40001