/*--------------------------------*- C++ -*----------------------------------*\
  =========                 |
  \\      /  F ield         | OpenFOAM: The Open Source CFD Toolbox
   \\    /   O peration     | Website:  https://openfoam.org
    \\  /    A nd           | Version:  7
     \\/     M anipulation  |
\*---------------------------------------------------------------------------*/
FoamFile
{
    version     2.0;
    format      ascii;
    class       volScalarField;
    location    "2.5";
    object      T;
}
// * * * * * * * * * * * * * * * * * * * * * * * * * * * * * * * * * * * * * //

dimensions      [0 0 0 1 0 0 0];

internalField   nonuniform List<scalar> 
258048
(
1
1
1
1
1
1
1
1
1
1
1
1
1
1
1
1
1
1
1
1
1
1
1
1
1
1
1
1
1
1
1
1
1
1
1
1
1
1
1
1
1
1
1
1
1
1
1
1
1
1
1
1
1
1
1
1
1
1
1
1
1
1
1
1
1
1
1
1
1
1
1
1
1
1
1
1
1
1
1
1
1
1
1
1
1
1
1
1
1
1
1
1
1
1
1
1
1
1
1
1.9984
2.65683
2.6915
2.69562
2.70007
2.70326
2.70545
2.7061
2.70585
2.70578
2.70726
2.71156
2.71641
2.72077
2.72388
2.72508
2.72469
2.72401
2.72417
2.72644
2.73071
2.73495
2.73824
2.7402
2.74051
2.74081
2.74186
2.74446
2.74787
2.75101
2.75308
2.7538
2.75377
2.75377
2.75449
2.7562
2.75852
2.76091
2.76284
2.76399
2.76453
2.76507
2.76639
2.76881
2.77181
2.77447
2.77594
2.77602
2.77526
2.77457
2.77488
2.77654
2.77908
2.78143
2.7828
2.78324
2.7834
2.78409
2.78575
2.78802
2.79017
2.79167
2.79268
2.79369
2.79487
2.79619
2.79752
2.79864
2.79945
2.80022
2.80146
2.80328
2.80531
2.80675
2.80714
2.8066
2.80573
2.8054
2.80611
2.80803
2.81037
2.81198
2.81264
2.81297
2.81346
2.81481
2.81733
2.82074
2.82484
2.82919
2.83254
2.83405
2.83386
1
1
1
1
1
1
1
1
1
1
1
1
1
1
1
1
1
1
1
1
1
1
1
1
1
1
1
1
1
1
1
1
1
1
1
1
1
1
1
1
1
1
1
1
1
1
1
1
1
1
1
1
1
1
1
1
1
1
1
1
1
1
1
1
1
1
1
1
1
1
1
1
1
1
1
1
1
1
1
1
1
1
1
1
1
1
1
1
1
1
1
1
1
1
1
1
1
1
1
1.99288
2.65736
2.69151
2.69545
2.69944
2.70249
2.70505
2.70645
2.70673
2.70672
2.70756
2.71084
2.71541
2.71975
2.72314
2.72503
2.72518
2.72486
2.72491
2.72661
2.73039
2.73446
2.73769
2.73972
2.74051
2.74114
2.74241
2.7448
2.74783
2.75064
2.75253
2.75333
2.75354
2.75383
2.75481
2.75662
2.75891
2.76117
2.76294
2.76395
2.76439
2.76486
2.76614
2.76861
2.77171
2.77447
2.77596
2.77601
2.77519
2.77446
2.77476
2.7765
2.77913
2.7815
2.7828
2.78316
2.7833
2.78403
2.78578
2.78809
2.79015
2.79148
2.79238
2.79342
2.79475
2.79627
2.79778
2.79894
2.79959
2.80019
2.80132
2.80319
2.80533
2.80682
2.80718
2.80654
2.80562
2.80533
2.80613
2.80818
2.81051
2.81201
2.81258
2.81283
2.81337
2.81486
2.81741
2.82079
2.82478
2.82904
2.83241
2.83403
2.83396
1
1
1
1
1
1
1
1
1
1
1
1
1
1
1
1
1
1
1
1
1
1
1
1
1
1
1
1
1
1
1
1
1
1
1
1
1
1
1
1
1
1
1
1
1
1
1
1
1
1
1
1
1
1
1
1
1
1
1
1
1
1
1
1
1
1
1
1
1
1
1
1
1
1
1
1
1
1
1
1
1
1
1
1
1
1
1
1
1
1
1
1
1
1
1
1
1
1
1
1.98154
2.65817
2.69192
2.69534
2.6988
2.7017
2.70454
2.70659
2.70753
2.70768
2.70802
2.71017
2.71415
2.71842
2.72209
2.72458
2.72564
2.7258
2.72599
2.72725
2.73032
2.73388
2.73681
2.7388
2.74011
2.7413
2.74307
2.74545
2.74808
2.75033
2.75176
2.75242
2.75283
2.75353
2.75495
2.75704
2.75939
2.76153
2.76308
2.76389
2.76417
2.76456
2.76579
2.76829
2.77149
2.77435
2.77591
2.77596
2.77511
2.77431
2.77461
2.77645
2.77918
2.78154
2.78276
2.78304
2.78313
2.78392
2.78581
2.78822
2.79024
2.79136
2.79202
2.79294
2.79432
2.79609
2.79798
2.79936
2.7999
2.80028
2.80112
2.80289
2.8051
2.80672
2.8071
2.80635
2.80533
2.80501
2.80592
2.80818
2.81061
2.81202
2.81245
2.81253
2.81307
2.81475
2.81742
2.8208
2.8247
2.82882
2.83215
2.83391
2.83405
1
1
1
1
1
1
1
1
1
1
1
1
1
1
1
1
1
1
1
1
1
1
1
1
1
1
1
1
1
1
1
1
1
1
1
1
1
1
1
1
1
1
1
1
1
1
1
1
1
1
1
1
1
1
1
1
1
1
1
1
1
1
1
1
1
1
1
1
1
1
1
1
1
1
1
1
1
1
1
1
1
1
1
1
1
1
1
1
1
1
1
1
1
1
1
1
1
1
1
1.9688
2.65709
2.69215
2.69513
2.69817
2.70115
2.70434
2.70709
2.70858
2.7087
2.70846
2.70938
2.71254
2.71679
2.72091
2.72417
2.7261
2.72683
2.72709
2.72795
2.73019
2.7331
2.73572
2.73776
2.73955
2.74152
2.74376
2.74614
2.7483
2.74992
2.75086
2.75141
2.75206
2.75328
2.75517
2.75753
2.75992
2.76189
2.76318
2.76374
2.76386
2.76417
2.76542
2.76795
2.77117
2.77408
2.77569
2.77578
2.77495
2.77416
2.77453
2.77647
2.77925
2.78155
2.78264
2.78282
2.78288
2.78376
2.78585
2.78837
2.79032
2.79121
2.79163
2.79236
2.7938
2.79587
2.7982
2.7998
2.80028
2.80046
2.80102
2.80261
2.80479
2.80652
2.80697
2.8062
2.80514
2.80478
2.80576
2.8082
2.8107
2.81202
2.81235
2.8123
2.81284
2.81465
2.81742
2.82078
2.82458
2.82859
2.83189
2.83381
2.83418
1
1
1
1
1
1
1
1
1
1
1
1
1
1
1
1
1
1
1
1
1
1
1
1
1
1
1
1
1
1
1
1
1
1
1
1
1
1
1
1
1
1
1
1
1
1
1
1
1
1
1
1
1
1
1
1
1
1
1
1
1
1
1
1
1
1
1
1
1
1
1
1
1
1
1
1
1
1
1
1
1
1
1
1
1
1
1
1
1
1
1
1
1
1
1
1
1
1
1
1.95631
2.65589
2.6918
2.69453
2.69739
2.7006
2.70416
2.70738
2.7093
2.70954
2.70906
2.70917
2.7113
2.71532
2.71974
2.72359
2.72623
2.72756
2.72802
2.72867
2.7302
2.73242
2.73465
2.73665
2.7389
2.74158
2.7443
2.7467
2.74848
2.74952
2.75002
2.75046
2.75135
2.75304
2.75533
2.75791
2.76029
2.76208
2.76313
2.76349
2.76354
2.76392
2.76521
2.76769
2.77081
2.77364
2.77523
2.7754
2.77471
2.77408
2.77458
2.77658
2.7793
2.78146
2.78239
2.78251
2.78258
2.78357
2.78582
2.78845
2.79036
2.79109
2.79131
2.79184
2.79329
2.79562
2.79828
2.80013
2.80066
2.80074
2.80108
2.80237
2.80436
2.80609
2.80666
2.806
2.80498
2.80463
2.80562
2.8081
2.81061
2.81192
2.8122
2.81212
2.81267
2.81452
2.81731
2.82063
2.82436
2.82832
2.83165
2.83369
2.83425
1
1
1
1
1
1
1
1
1
1
1
1
1
1
1
1
1
1
1
1
1
1
1
1
1
1
1
1
1
1
1
1
1
1
1
1
1
1
1
1
1
1
1
1
1
1
1
1
1
1
1
1
1
1
1
1
1
1
1
1
1
1
1
1
1
1
1
1
1
1
1
1
1
1
1
1
1
1
1
1
1
1
1
1
1
1
1
1
1
1
1
1
1
1
1
1
1
1
1
1.9418
2.65558
2.69089
2.69311
2.69615
2.69967
2.70366
2.70735
2.70974
2.71029
2.70987
2.70942
2.71069
2.7142
2.7186
2.72277
2.72599
2.7279
2.72866
2.72924
2.73022
2.73179
2.73358
2.73558
2.73836
2.74162
2.74466
2.74699
2.74846
2.74904
2.74919
2.74963
2.75087
2.75298
2.75554
2.75815
2.76036
2.76189
2.76273
2.76306
2.76326
2.76391
2.76532
2.76764
2.77047
2.773
2.77447
2.77475
2.77439
2.77411
2.77481
2.77679
2.77927
2.78117
2.78197
2.78209
2.78226
2.78342
2.78576
2.78838
2.79023
2.79088
2.79104
2.79149
2.79293
2.7954
2.79825
2.80027
2.80094
2.80104
2.80127
2.80224
2.80388
2.80546
2.80615
2.80573
2.8049
2.80462
2.80554
2.80788
2.81033
2.81169
2.81204
2.81204
2.8126
2.81438
2.81707
2.82031
2.82405
2.82807
2.83148
2.8336
2.83427
1
1
1
1
1
1
1
1
1
1
1
1
1
1
1
1
1
1
1
1
1
1
1
1
1
1
1
1
1
1
1
1
1
1
1
1
1
1
1
1
1
1
1
1
1
1
1
1
1
1
1
1
1
1
1
1
1
1
1
1
1
1
1
1
1
1
1
1
1
1
1
1
1
1
1
1
1
1
1
1
1
1
1
1
1
1
1
1
1
1
1
1
1
1
1
1
1
1
1
1.92273
2.65489
2.69058
2.69133
2.69431
2.69819
2.70269
2.70702
2.71004
2.71114
2.71094
2.71011
2.71069
2.71344
2.71753
2.7218
2.72554
2.728
2.72911
2.7296
2.73016
2.7311
2.73247
2.73467
2.73809
2.7418
2.74495
2.74705
2.74812
2.74832
2.74823
2.74886
2.75063
2.75317
2.75586
2.75827
2.76013
2.76126
2.76194
2.7624
2.76298
2.76405
2.76566
2.76778
2.77011
2.77214
2.77341
2.77393
2.77398
2.77424
2.77528
2.77708
2.77913
2.78067
2.78137
2.78163
2.78208
2.78344
2.78574
2.78817
2.78984
2.79048
2.79075
2.79135
2.79284
2.79527
2.79809
2.80019
2.80105
2.80127
2.80152
2.80223
2.80343
2.80474
2.80547
2.80535
2.80484
2.80466
2.8055
2.80758
2.80988
2.81132
2.81184
2.81202
2.81261
2.81423
2.8167
2.81983
2.82365
2.82782
2.8314
2.83354
2.83426
1
1
1
1
1
1
1
1
1
1
1
1
1
1
1
1
1
1
1
1
1
1
1
1
1
1
1
1
1
1
1
1
1
1
1
1
1
1
1
1
1
1
1
1
1
1
1
1
1
1
1
1
1
1
1
1
1
1
1
1
1
1
1
1
1
1
1
1
1
1
1
1
1
1
1
1
1
1
1
1
1
1
1
1
1
1
1
1
1
1
1
1
1
1
1
1
1
1
1
1.89907
2.65288
2.69127
2.69024
2.69227
2.69623
2.70129
2.70633
2.71008
2.71188
2.7119
2.71093
2.71085
2.71289
2.71658
2.72088
2.72498
2.72795
2.72933
2.72964
2.72981
2.73029
2.73142
2.73414
2.73813
2.74209
2.74518
2.74688
2.74735
2.74724
2.74704
2.74819
2.75063
2.7536
2.7563
2.75832
2.75959
2.76023
2.76075
2.76151
2.7627
2.7644
2.76622
2.76799
2.76967
2.77108
2.77213
2.77292
2.77362
2.77459
2.7759
2.77736
2.77878
2.77986
2.78055
2.78115
2.78209
2.78371
2.78583
2.78782
2.78916
2.78981
2.79038
2.7914
2.79305
2.79537
2.79789
2.79985
2.80088
2.80132
2.8017
2.80229
2.80311
2.80406
2.8047
2.80481
2.80464
2.80466
2.80548
2.80727
2.80936
2.81087
2.8116
2.81202
2.81265
2.81404
2.81622
2.81922
2.82316
2.82755
2.83133
2.83351
2.83425
1
1
1
1
1
1
1
1
1
1
1
1
1
1
1
1
1
1
1
1
1
1
1
1
1
1
1
1
1
1
1
1
1
1
1
1
1
1
1
1
1
1
1
1
1
1
1
1
1
1
1
1
1
1
1
1
1
1
1
1
1
1
1
1
1
1
1
1
1
1
1
1
1
1
1
1
1
1
1
1
1
1
1
1
1
1
1
1
1
1
1
1
1
1
1
1
1
1
1
1.87223
2.64883
2.69189
2.6899
2.69093
2.69436
2.69967
2.70527
2.70976
2.71218
2.71232
2.71138
2.71085
2.71248
2.71586
2.72021
2.72446
2.72768
2.72923
2.72939
2.72912
2.7294
2.73058
2.73399
2.73836
2.74237
2.74526
2.74646
2.74635
2.74586
2.74564
2.74761
2.75079
2.75412
2.75676
2.75825
2.7588
2.75893
2.75934
2.76053
2.76252
2.76487
2.76683
2.76815
2.7691
2.76989
2.77073
2.77188
2.77337
2.77506
2.77652
2.77755
2.77827
2.77885
2.77957
2.78065
2.78223
2.78418
2.78606
2.78744
2.78826
2.78891
2.78987
2.79139
2.79345
2.79575
2.79785
2.79941
2.80039
2.8011
2.80175
2.80237
2.80296
2.80352
2.80393
2.80411
2.8042
2.80452
2.80544
2.80702
2.80888
2.81038
2.8113
2.81194
2.81264
2.8138
2.81569
2.81858
2.8226
2.82721
2.83122
2.83349
2.83431
1
1
1
1
1
1
1
1
1
1
1
1
1
1
1
1
1
1
1
1
1
1
1
1
1
1
1
1
1
1
1
1
1
1
1
1
1
1
1
1
1
1
1
1
1
1
1
1
1
1
1
1
1
1
1
1
1
1
1
1
1
1
1
1
1
1
1
1
1
1
1
1
1
1
1
1
1
1
1
1
1
1
1
1
1
1
1
1
1
1
1
1
1
1
1
1
1
1
1
1.84206
2.64341
2.69252
2.69006
2.69046
2.6931
2.69819
2.7039
2.70878
2.71172
2.71215
2.71147
2.71077
2.71223
2.7155
2.71981
2.72399
2.72714
2.72861
2.72866
2.72826
2.72862
2.73031
2.73427
2.73872
2.74251
2.745
2.74563
2.74516
2.74434
2.74431
2.74727
2.75099
2.75453
2.75703
2.75798
2.75786
2.75757
2.75795
2.75966
2.76245
2.76533
2.76727
2.76806
2.76832
2.76862
2.76934
2.77091
2.7732
2.77548
2.77697
2.77755
2.77763
2.77779
2.77853
2.78016
2.78246
2.78476
2.78636
2.78708
2.78736
2.7879
2.78917
2.79131
2.7939
2.79624
2.7979
2.79894
2.79973
2.80062
2.80159
2.8024
2.80292
2.80316
2.80324
2.8033
2.80353
2.80417
2.80531
2.80686
2.80852
2.80991
2.81093
2.81173
2.8125
2.81351
2.81516
2.81792
2.822
2.82679
2.83101
2.83346
2.83443
1
1
1
1
1
1
1
1
1
1
1
1
1
1
1
1
1
1
1
1
1
1
1
1
1
1
1
1
1
1
1
1
1
1
1
1
1
1
1
1
1
1
1
1
1
1
1
1
1
1
1
1
1
1
1
1
1
1
1
1
1
1
1
1
1
1
1
1
1
1
1
1
1
1
1
1
1
1
1
1
1
1
1
1
1
1
1
1
1
1
1
1
1
1
1
1
1
1
1
1.80571
2.6355
2.69328
2.6907
2.69062
2.69254
2.697
2.70231
2.7071
2.71043
2.71152
2.71134
2.71101
2.71238
2.71552
2.71956
2.72336
2.72616
2.72729
2.72743
2.72736
2.72826
2.7307
2.73483
2.73899
2.74231
2.7442
2.74437
2.7437
2.74284
2.74352
2.74721
2.75114
2.75468
2.75694
2.75746
2.75692
2.75633
2.75685
2.75916
2.7625
2.76558
2.76733
2.76764
2.76746
2.76741
2.76811
2.7702
2.77314
2.77574
2.77713
2.77725
2.77691
2.77686
2.77763
2.77978
2.78272
2.78523
2.78652
2.78667
2.7866
2.78695
2.78849
2.79121
2.79426
2.79661
2.79789
2.79846
2.79903
2.79998
2.80124
2.80235
2.80291
2.80293
2.80267
2.80247
2.80272
2.80362
2.80508
2.80677
2.8083
2.80948
2.81047
2.81133
2.81219
2.81316
2.81466
2.8173
2.82136
2.82628
2.83069
2.83341
2.83461
1
1
1
1
1
1
1
1
1
1
1
1
1
1
1
1
1
1
1
1
1
1
1
1
1
1
1
1
1
1
1
1
1
1
1
1
1
1
1
1
1
1
1
1
1
1
1
1
1
1
1
1
1
1
1
1
1
1
1
1
1
1
1
1
1
1
1
1
1
1
1
1
1
1
1
1
1
1
1
1
1
1
1
1
1
1
1
1
1
1
1
1
1
1
1
1
1
1
1
1.76325
2.62447
2.69365
2.69166
2.69124
2.69252
2.6961
2.70066
2.70504
2.7085
2.71039
2.71101
2.71147
2.71295
2.71577
2.71926
2.72247
2.72478
2.72558
2.72595
2.72657
2.72843
2.73149
2.73545
2.73905
2.74171
2.74293
2.74271
2.74208
2.74171
2.74339
2.74745
2.75128
2.7545
2.75633
2.75651
2.75576
2.75529
2.75626
2.75906
2.76254
2.76546
2.7669
2.7669
2.76651
2.7663
2.76723
2.76982
2.77307
2.77569
2.7769
2.77674
2.77616
2.77607
2.777
2.77956
2.78283
2.78535
2.78639
2.78629
2.78602
2.7863
2.78802
2.79111
2.7944
2.79668
2.79766
2.79795
2.79838
2.79935
2.80079
2.80216
2.80284
2.80271
2.80212
2.80168
2.80185
2.80295
2.80479
2.80668
2.80812
2.8091
2.80994
2.81077
2.81174
2.81277
2.81421
2.81671
2.82069
2.82568
2.83026
2.83332
2.83483
1
1
1
1
1
1
1
1
1
1
1
1
1
1
1
1
1
1
1
1
1
1
1
1
1
1
1
1
1
1
1
1
1
1
1
1
1
1
1
1
1
1
1
1
1
1
1
1
1
1
1
1
1
1
1
1
1
1
1
1
1
1
1
1
1
1
1
1
1
1
1
1
1
1
1
1
1
1
1
1
1
1
1
1
1
1
1
1
1
1
1
1
1
1
1
1
1
1
1
1.7158
2.6109
2.69351
2.69244
2.692
2.69276
2.69543
2.69916
2.70305
2.7065
2.70903
2.71045
2.71164
2.71339
2.71599
2.71889
2.72144
2.72321
2.72379
2.72444
2.72596
2.7288
2.7323
2.73592
2.73884
2.74068
2.74112
2.74066
2.74044
2.74091
2.7437
2.74788
2.75141
2.75408
2.75536
2.75518
2.75441
2.75446
2.75616
2.75924
2.76253
2.765
2.76599
2.76581
2.76544
2.76544
2.76687
2.76973
2.77286
2.7752
2.77615
2.77593
2.77543
2.77548
2.77672
2.77948
2.78269
2.78504
2.78591
2.78582
2.78559
2.78599
2.78785
2.79097
2.79418
2.79634
2.79716
2.79742
2.79785
2.79885
2.80037
2.80184
2.80259
2.80233
2.80152
2.80094
2.80104
2.80226
2.80444
2.80651
2.80788
2.8087
2.80937
2.81012
2.81118
2.81234
2.81376
2.81616
2.81999
2.825
2.82975
2.83318
2.835
1
1
1
1
1
1
1
1
1
1
1
1
1
1
1
1
1
1
1
1
1
1
1
1
1
1
1
1
1
1
1
1
1
1
1
1
1
1
1
1
1
1
1
1
1
1
1
1
1
1
1
1
1
1
1
1
1
1
1
1
1
1
1
1
1
1
1
1
1
1
1
1
1
1
1
1
1
1
1
1
1
1
1
1
1
1
1
1
1
1
1
1
1
1
1
1
1
1
1
1.6632
2.59531
2.69308
2.6928
2.69252
2.69298
2.69494
2.69803
2.70151
2.70492
2.70779
2.70978
2.71155
2.71353
2.716
2.71843
2.72036
2.7216
2.72224
2.7232
2.72556
2.72908
2.73284
2.73609
2.73821
2.73917
2.73903
2.73855
2.73885
2.74042
2.74413
2.7483
2.75146
2.75344
2.75399
2.75351
2.75293
2.75367
2.75617
2.75947
2.76246
2.76434
2.76474
2.76445
2.76429
2.76481
2.76688
2.76984
2.7726
2.77441
2.77497
2.77484
2.77474
2.77516
2.77682
2.77962
2.7825
2.78444
2.7851
2.78514
2.7852
2.78595
2.78795
2.79085
2.79371
2.7956
2.7964
2.7968
2.79742
2.79855
2.80009
2.80148
2.80211
2.80175
2.80086
2.80024
2.80035
2.80167
2.80403
2.8062
2.80752
2.80825
2.80879
2.80948
2.81059
2.81184
2.8133
2.8156
2.81927
2.82423
2.82923
2.83301
2.83506
1
1
1
1
1
1
1
1
1
1
1
1
1
1
1
1
1
1
1
1
1
1
1
1
1
1
1
1
1
1
1
1
1
1
1
1
1
1
1
1
1
1
1
1
1
1
1
1
1
1
1
1
1
1
1
1
1
1
1
1
1
1
1
1
1
1
1
1
1
1
1
1
1
1
1
1
1
1
1
1
1
1
1
1
1
1
1
1
1
1
1
1
1
1
1
1
1
1
1
1.60505
2.57781
2.6922
2.69262
2.69268
2.6931
2.69474
2.69745
2.70067
2.70393
2.70678
2.70896
2.71102
2.71321
2.71562
2.71775
2.71928
2.72023
2.72101
2.72239
2.72524
2.72914
2.73299
2.73588
2.73727
2.73749
2.73706
2.73675
2.73761
2.74018
2.74443
2.74852
2.75128
2.75255
2.75243
2.75169
2.75147
2.75304
2.7563
2.75969
2.76221
2.76332
2.76317
2.76283
2.76307
2.76436
2.7671
2.77005
2.77227
2.77334
2.77352
2.77353
2.77389
2.77506
2.77727
2.77998
2.78227
2.78357
2.78399
2.78424
2.78481
2.78607
2.78824
2.79086
2.79317
2.79465
2.7954
2.79607
2.79705
2.79839
2.79992
2.80108
2.80144
2.80097
2.80011
2.79958
2.79978
2.8012
2.80356
2.80567
2.80698
2.80771
2.80822
2.80891
2.80999
2.81125
2.81274
2.81497
2.81853
2.82348
2.82871
2.83278
2.83496
1
1
1
1
1
1
1
1
1
1
1
1
1
1
1
1
1
1
1
1
1
1
1
1
1
1
1
1
1
1
1
1
1
1
1
1
1
1
1
1
1
1
1
1
1
1
1
1
1
1
1
1
1
1
1
1
1
1
1
1
1
1
1
1
1
1
1
1
1
1
1
1
1
1
1
1
1
1
1
1
1
1
1
1
1
1
1
1
1
1
1
1
1
1
1
1
1
1
1
1.542
2.55849
2.6909
2.69193
2.69237
2.69311
2.69475
2.69736
2.70046
2.70344
2.70597
2.70801
2.71003
2.71238
2.71484
2.71687
2.71824
2.7191
2.71999
2.72168
2.72476
2.72877
2.73257
2.73518
2.73619
2.73606
2.73545
2.73544
2.73685
2.74017
2.7446
2.74851
2.75081
2.75138
2.7508
2.74997
2.75021
2.75271
2.75643
2.75973
2.76168
2.76196
2.76146
2.76116
2.76188
2.76413
2.76744
2.77029
2.77189
2.77217
2.77197
2.77211
2.77302
2.77502
2.77778
2.7804
2.78207
2.78263
2.78285
2.78324
2.78431
2.78615
2.78859
2.79093
2.79264
2.79359
2.79424
2.79519
2.79658
2.79825
2.79981
2.80068
2.80066
2.80004
2.79929
2.79893
2.79932
2.80081
2.80298
2.80493
2.80623
2.80707
2.8077
2.80843
2.80941
2.81056
2.81204
2.81425
2.8178
2.82283
2.82822
2.83245
2.83466
1
1
1
1
1
1
1
1
1
1
1
1
1
1
1
1
1
1
1
1
1
1
1
1
1
1
1
1
1
1
1
1
1
1
1
1
1
1
1
1
1
1
1
1
1
1
1
1
1
1
1
1
1
1
1
1
1
1
1
1
1
1
1
1
1
1
1
1
1
1
1
1
1
1
1
1
1
1
1
1
1
1
1
1
1
1
1
1
1
1
1
1
1
1
1
1
1
1
1
1.47635
2.53719
2.68944
2.69074
2.69175
2.69294
2.69476
2.69744
2.70049
2.70314
2.7052
2.70696
2.70889
2.71127
2.71383
2.71597
2.71737
2.71822
2.71911
2.72083
2.72388
2.72779
2.73152
2.73408
2.73504
2.73485
2.73435
2.73464
2.73652
2.74012
2.74438
2.74789
2.74975
2.74986
2.74914
2.74855
2.7494
2.75263
2.75649
2.75944
2.76082
2.76053
2.75976
2.75963
2.76096
2.76411
2.76774
2.77031
2.7713
2.77101
2.77053
2.77078
2.77225
2.77504
2.77827
2.7807
2.78175
2.78178
2.78175
2.7822
2.7837
2.78612
2.78883
2.79099
2.79216
2.79255
2.79304
2.79417
2.79599
2.79806
2.79967
2.80027
2.79988
2.79905
2.79841
2.79828
2.79892
2.80043
2.8023
2.804
2.80531
2.80636
2.80723
2.80802
2.80884
2.80981
2.81119
2.8134
2.81708
2.82228
2.82778
2.83201
2.83411
1
1
1
1
1
1
1
1
1
1
1
1
1
1
1
1
1
1
1
1
1
1
1
1
1
1
1
1
1
1
1
1
1
1
1
1
1
1
1
1
1
1
1
1
1
1
1
1
1
1
1
1
1
1
1
1
1
1
1
1
1
1
1
1
1
1
1
1
1
1
1
1
1
1
1
1
1
1
1
1
1
1
1
1
1
1
1
1
1
1
1
1
1
1
1
1
1
1
1
1.40748
2.51272
2.68845
2.68937
2.69084
2.6924
2.69453
2.69735
2.7003
2.70265
2.70435
2.7059
2.70782
2.71023
2.7128
2.71502
2.71651
2.71734
2.71817
2.71978
2.72264
2.72642
2.73012
2.73278
2.7339
2.73386
2.73371
2.73432
2.73645
2.73995
2.74382
2.74691
2.7484
2.74828
2.74765
2.74754
2.74905
2.75261
2.7563
2.75882
2.75968
2.75913
2.75828
2.75849
2.76057
2.7642
2.76779
2.76999
2.77041
2.76991
2.76933
2.76975
2.7717
2.775
2.77847
2.78069
2.7812
2.78101
2.78078
2.78129
2.78312
2.78596
2.78889
2.79088
2.79157
2.7916
2.7919
2.79313
2.7953
2.79775
2.79938
2.79972
2.79911
2.79811
2.79752
2.79762
2.79854
2.8
2.80153
2.80294
2.80427
2.8056
2.8068
2.80765
2.80826
2.80899
2.81019
2.81243
2.81636
2.82181
2.82737
2.83147
2.83336
1
1
1
1
1
1
1
1
1
1
1
1
1
1
1
1
1
1
1
1
1
1
1
1
1
1
1
1
1
1
1
1
1
1
1
1
1
1
1
1
1
1
1
1
1
1
1
1
1
1
1
1
1
1
1
1
1
1
1
1
1
1
1
1
1
1
1
1
1
1
1
1
1
1
1
1
1
1
1
1
1
1
1
1
1
1
1
1
1
1
1
1
1
1
1
1
1
1
1
1.33701
2.48481
2.68792
2.68784
2.68942
2.69138
2.69395
2.69698
2.69985
2.70197
2.7035
2.70493
2.70676
2.70915
2.71176
2.71405
2.71564
2.71655
2.71736
2.71884
2.72147
2.72501
2.72863
2.73139
2.73277
2.7331
2.73332
2.73422
2.73635
2.73955
2.74299
2.74567
2.74684
2.74674
2.74644
2.74685
2.74896
2.75245
2.75573
2.75785
2.75829
2.75771
2.75708
2.75789
2.76057
2.76423
2.76743
2.7692
2.76932
2.76882
2.76839
2.76917
2.77153
2.77496
2.77827
2.78021
2.78041
2.78014
2.77993
2.78064
2.78275
2.78574
2.78869
2.79046
2.79082
2.79071
2.79091
2.79219
2.79459
2.79725
2.79888
2.79907
2.79833
2.79725
2.79671
2.79697
2.79807
2.79946
2.80068
2.80182
2.80318
2.80479
2.80632
2.80726
2.80764
2.8081
2.80908
2.81139
2.81562
2.82135
2.82697
2.83086
2.83247
1
1
1
1
1
1
1
1
1
1
1
1
1
1
1
1
1
1
1
1
1
1
1
1
1
1
1
1
1
1
1
1
1
1
1
1
1
1
1
1
1
1
1
1
1
1
1
1
1
1
1
1
1
1
1
1
1
1
1
1
1
1
1
1
1
1
1
1
1
1
1
1
1
1
1
1
1
1
1
1
1
1
1
1
1
1
1
1
1
1
1
1
1
1
1
1
1
1
1
1.26638
2.45163
2.687
2.68646
2.68814
2.69028
2.69314
2.69628
2.6991
2.70112
2.7026
2.70402
2.70585
2.70817
2.71077
2.71316
2.7149
2.71595
2.7168
2.71815
2.72046
2.72368
2.72715
2.73
2.73171
2.73247
2.73301
2.73409
2.73612
2.73902
2.74207
2.74437
2.74535
2.74536
2.7455
2.7465
2.74892
2.75211
2.75491
2.75658
2.75676
2.75632
2.75626
2.75786
2.76091
2.7643
2.76685
2.76794
2.7678
2.76742
2.76749
2.76894
2.77173
2.7751
2.77791
2.77931
2.77934
2.77914
2.77918
2.78032
2.78267
2.78558
2.78822
2.78967
2.78986
2.78976
2.79003
2.79144
2.79391
2.79656
2.79814
2.7983
2.79755
2.79649
2.79599
2.79634
2.79748
2.79874
2.79972
2.80069
2.80211
2.80394
2.80575
2.80678
2.80699
2.80719
2.80796
2.81032
2.81486
2.82085
2.8265
2.83017
2.83151
1
1
1
1
1
1
1
1
1
1
1
1
1
1
1
1
1
1
1
1
1
1
1
1
1
1
1
1
1
1
1
1
1
1
1
1
1
1
1
1
1
1
1
1
1
1
1
1
1
1
1
1
1
1
1
1
1
1
1
1
1
1
1
1
1
1
1
1
1
1
1
1
1
1
1
1
1
1
1
1
1
1
1
1
1
1
1
1
1
1
1
1
1
1
1
1
1
1
1
1.19276
2.4098
2.68459
2.68501
2.68707
2.68934
2.69225
2.69541
2.69828
2.70037
2.70179
2.70304
2.7048
2.70713
2.70982
2.71239
2.71438
2.71565
2.71657
2.71785
2.71983
2.72265
2.72586
2.72869
2.73063
2.73175
2.73259
2.73382
2.7358
2.73844
2.74111
2.74308
2.74398
2.74426
2.74482
2.74627
2.74875
2.75163
2.75394
2.75517
2.75525
2.75503
2.75573
2.75813
2.7614
2.76438
2.76621
2.76649
2.76621
2.76602
2.76683
2.76912
2.77229
2.77537
2.77744
2.77814
2.778
2.77797
2.77851
2.78026
2.78279
2.78544
2.78751
2.78853
2.78867
2.78872
2.78928
2.7909
2.79331
2.79576
2.7972
2.79738
2.79673
2.79578
2.79533
2.79569
2.79673
2.79782
2.79866
2.79959
2.8011
2.8031
2.80507
2.80614
2.80626
2.80627
2.80688
2.80928
2.81405
2.82024
2.82592
2.82939
2.83055
1
1
1
1
1
1
1
1
1
1
1
1
1
1
1
1
1
1
1
1
1
1
1
1
1
1
1
1
1
1
1
1
1
1
1
1
1
1
1
1
1
1
1
1
1
1
1
1
1
1
1
1
1
1
1
1
1
1
1
1
1
1
1
1
1
1
1
1
1
1
1
1
1
1
1
1
1
1
1
1
1
1
1
1
1
1
1
1
1
1
1
1
1
1
1
1
1
1
1
1.11611
2.36346
2.68262
2.68449
2.68665
2.6889
2.69176
2.69488
2.69781
2.70002
2.70143
2.70237
2.70366
2.70588
2.70878
2.7117
2.71407
2.71564
2.71668
2.7179
2.71961
2.722
2.72486
2.72755
2.72957
2.73092
2.73205
2.73351
2.73551
2.73795
2.74033
2.74204
2.74288
2.74337
2.74424
2.74595
2.74837
2.75094
2.75284
2.75374
2.75388
2.75402
2.75556
2.75853
2.7618
2.76432
2.76541
2.76508
2.76456
2.76459
2.76627
2.76938
2.77279
2.77549
2.77679
2.77677
2.77646
2.77666
2.77794
2.78034
2.78303
2.78529
2.78667
2.78719
2.78729
2.78761
2.78864
2.79051
2.7928
2.79487
2.79608
2.79628
2.79581
2.79507
2.79471
2.79502
2.79586
2.79675
2.79754
2.79853
2.80014
2.80225
2.80426
2.80532
2.80541
2.80533
2.80587
2.8083
2.81318
2.81949
2.82519
2.82854
2.82963
1
1
1
1
1
1
1
1
1
1
1
1
1
1
1
1
1
1
1
1
1
1
1
1
1
1
1
1
1
1
1
1
1
1
1
1
1
1
1
1
1
1
1
1
1
1
1
1
1
1
1
1
1
1
1
1
1
1
1
1
1
1
1
1
1
1
1
1
1
1
1
1
1
1
1
1
1
1
1
1
1
1
1
1
1
1
1
1
1
1
1
1
1
1
1
1
1
1
1
1.03208
2.31591
2.68287
2.68506
2.68668
2.68868
2.69129
2.69434
2.69735
2.6998
2.7014
2.70235
2.70335
2.70506
2.70766
2.71068
2.71343
2.71548
2.71692
2.71821
2.71971
2.7217
2.72415
2.72659
2.72854
2.72999
2.73135
2.73307
2.73519
2.73755
2.73974
2.74126
2.74205
2.74265
2.74368
2.74548
2.74783
2.75017
2.75182
2.7526
2.75289
2.75348
2.75557
2.75871
2.76185
2.76391
2.76437
2.76376
2.76312
2.76342
2.76585
2.76956
2.77309
2.77539
2.77601
2.77546
2.77498
2.77538
2.77738
2.78037
2.78317
2.78502
2.78572
2.78573
2.78578
2.78645
2.78805
2.7902
2.79229
2.79391
2.79485
2.79507
2.79478
2.79431
2.79409
2.79432
2.7949
2.79558
2.79636
2.79749
2.79923
2.80138
2.80331
2.80434
2.80446
2.80437
2.80493
2.80738
2.81227
2.81861
2.82432
2.82763
2.82874
1
1
1
1
1
1
1
1
1
1
1
1
1
1
1
1
1
1
1
1
1
1
1
1
1
1
1
1
1
1
1
1
1
1
1
1
1
1
1
1
1
1
1
1
1
1
1
1
1
1
1
1
1
1
1
1
1
1
1
1
1
1
1
1
1
1
1
1
1
1
1
1
1
1
1
1
1
1
1
1
1
1
1
1
1
1
1
1
1
1
1
1
1
1
1
1
1
1
1
1.00081
2.26112
2.68095
2.68622
2.68768
2.68953
2.69171
2.69438
2.69718
2.69961
2.7013
2.70233
2.70331
2.70491
2.70739
2.71041
2.71329
2.71561
2.71742
2.71882
2.72009
2.72164
2.7236
2.72566
2.72747
2.72902
2.73073
2.73281
2.73507
2.73738
2.73942
2.74079
2.74151
2.74216
2.74318
2.74488
2.74704
2.74917
2.75073
2.75163
2.7523
2.75337
2.75562
2.75855
2.76139
2.7631
2.76321
2.76254
2.76204
2.76275
2.76563
2.76947
2.77297
2.77494
2.77509
2.77424
2.77369
2.77432
2.77688
2.78023
2.78301
2.7844
2.78457
2.78428
2.78432
2.78539
2.78751
2.78984
2.79168
2.79288
2.79356
2.79378
2.79368
2.7935
2.79343
2.79356
2.79386
2.79434
2.79514
2.79646
2.79835
2.80047
2.80225
2.8032
2.80338
2.80338
2.80404
2.80652
2.81133
2.81761
2.8233
2.82665
2.82783
1
1
1
1
1
1
1
1
1
1
1
1
1
1
1
1
1
1
1
1
1
1
1
1
1
1
1
1
1
1
1
1
1
1
1
1
1
1
1
1
1
1
1
1
1
1
1
1
1
1
1
1
1
1
1
1
1
1
1
1
1
1
1
1
1
1
1
1
1
1
1
1
1
1
1
1
1
1
1
1
1
1
1
1
1
1
1
1
1
1
1
1
1
1
1
1
1
1
1
1
2.19204
2.67675
2.68762
2.68903
2.69086
2.69246
2.69453
2.69694
2.69928
2.70108
2.70226
2.70326
2.70473
2.70707
2.71012
2.71325
2.71605
2.71826
2.71964
2.72052
2.7215
2.72286
2.72458
2.7264
2.72828
2.73045
2.73282
2.7351
2.73725
2.73908
2.7403
2.74103
2.74181
2.74284
2.74433
2.74617
2.74804
2.74959
2.75087
2.75215
2.75368
2.75591
2.75831
2.76047
2.76176
2.76183
2.76142
2.7614
2.76271
2.76573
2.76931
2.77239
2.77397
2.77391
2.77302
2.77262
2.77362
2.77651
2.7799
2.78243
2.78345
2.78331
2.78291
2.78306
2.7845
2.78694
2.78929
2.79087
2.79173
2.79222
2.79246
2.79257
2.79263
2.79268
2.7927
2.79275
2.79305
2.79389
2.79544
2.79747
2.79951
2.80111
2.80196
2.80219
2.80233
2.80317
2.80568
2.81039
2.81655
2.82219
2.82557
2.82684
1
1
1
1
1
1
1
1
1
1
1
1
1
1
1
1
1
1
1
1
1
1
1
1
1
1
1
1
1
1
1
1
1
1
1
1
1
1
1
1
1
1
1
1
1
1
1
1
1
1
1
1
1
1
1
1
1
1
1
1
1
1
1
1
1
1
1
1
1
1
1
1
1
1
1
1
1
1
1
1
1
1
1
1
1
1
1
1
1
1
1
1
1
1
1
1
1
1
1
1
2.11177
2.6678
2.68785
2.68964
2.69177
2.69312
2.6947
2.69668
2.69875
2.7005
2.70178
2.70288
2.70438
2.70673
2.70994
2.71343
2.71666
2.71902
2.72018
2.72058
2.72099
2.72185
2.72347
2.72559
2.72797
2.73052
2.73299
2.73511
2.73693
2.73851
2.73965
2.74058
2.74159
2.74264
2.74385
2.74526
2.74679
2.74844
2.7503
2.75227
2.75425
2.75623
2.75792
2.75917
2.75994
2.76023
2.76037
2.76117
2.76316
2.76603
2.76903
2.77139
2.7725
2.77242
2.77177
2.77178
2.77329
2.77626
2.77934
2.78143
2.78215
2.78196
2.78166
2.78205
2.78378
2.78626
2.78843
2.78977
2.79046
2.7909
2.79119
2.79149
2.79174
2.79182
2.79168
2.79153
2.79175
2.79265
2.79442
2.79658
2.7985
2.79989
2.80063
2.80088
2.80121
2.80226
2.80485
2.80946
2.81548
2.82101
2.82439
2.82569
1
1
1
1
1
1
1
1
1
1
1
1
1
1
1
1
1
1
1
1
1
1
1
1
1
1
1
1
1
1
1
1
1
1
1
1
1
1
1
1
1
1
1
1
1
1
1
1
1
1
1
1
1
1
1
1
1
1
1
1
1
1
1
1
1
1
1
1
1
1
1
1
1
1
1
1
1
1
1
1
1
1
1
1
1
1
1
1
1
1
1
1
1
1
1
1
1
1
1
1
2.02216
2.65287
2.68595
2.68896
2.69167
2.69302
2.69432
2.69596
2.69779
2.69944
2.70081
2.70214
2.70387
2.70644
2.70984
2.71359
2.71696
2.7192
2.72007
2.72011
2.7202
2.7209
2.72267
2.72517
2.72795
2.73071
2.7331
2.73491
2.73635
2.73771
2.73891
2.74014
2.74141
2.74247
2.74342
2.74441
2.74562
2.7474
2.74981
2.7524
2.75464
2.75635
2.75737
2.75783
2.7581
2.7585
2.75949
2.7613
2.76374
2.7663
2.76859
2.77015
2.77074
2.77066
2.7705
2.77118
2.77323
2.77601
2.7785
2.78007
2.78059
2.78052
2.78051
2.78129
2.78317
2.78543
2.78727
2.7884
2.78907
2.78959
2.79001
2.79048
2.79083
2.79084
2.79051
2.79021
2.79041
2.79142
2.79342
2.79566
2.79743
2.79862
2.79921
2.79949
2.80002
2.8013
2.80398
2.80854
2.8144
2.81978
2.82311
2.82438
1
1
1
1
1
1
1
1
1
1
1
1
1
1
1
1
1
1
1
1
1
1
1
1
1
1
1
1
1
1
1
1
1
1
1
1
1
1
1
1
1
1
1
1
1
1
1
1
1
1
1
1
1
1
1
1
1
1
1
1
1
1
1
1
1
1
1
1
1
1
1
1
1
1
1
1
1
1
1
1
1
1
1
1
1
1
1
1
1
1
1
1
1
1
1
1
1
1
1
1
1.92358
2.63315
2.68185
2.68723
2.69085
2.6923
2.6933
2.69461
2.69631
2.69797
2.69947
2.70101
2.70301
2.70584
2.70938
2.71318
2.71648
2.71855
2.71918
2.71911
2.71928
2.72017
2.72219
2.72495
2.72793
2.73071
2.73289
2.73439
2.7356
2.73686
2.73815
2.73962
2.74105
2.74212
2.74293
2.74371
2.74476
2.74666
2.74935
2.75222
2.75458
2.75611
2.75668
2.75665
2.75657
2.75702
2.75871
2.76132
2.76403
2.76632
2.76795
2.76875
2.76886
2.7688
2.76929
2.77088
2.77326
2.77566
2.77746
2.77848
2.77886
2.779
2.77946
2.7807
2.78256
2.78443
2.78585
2.7868
2.78756
2.78829
2.78892
2.78953
2.78986
2.78971
2.78918
2.7888
2.78904
2.79022
2.79242
2.79468
2.79628
2.79727
2.79773
2.79804
2.79878
2.80028
2.80304
2.80757
2.81329
2.81852
2.82172
2.82294
1
1
1
1
1
1
1
1
1
1
1
1
1
1
1
1
1
1
1
1
1
1
1
1
1
1
1
1
1
1
1
1
1
1
1
1
1
1
1
1
1
1
1
1
1
1
1
1
1
1
1
1
1
1
1
1
1
1
1
1
1
1
1
1
1
1
1
1
1
1
1
1
1
1
1
1
1
1
1
1
1
1
1
1
1
1
1
1
1
1
1
1
1
1
1
1
1
1
1
1
1.8143
2.60988
2.67748
2.68492
2.68908
2.6906
2.69144
2.6925
2.6942
2.696
2.6978
2.6997
2.70201
2.7049
2.70825
2.71175
2.71476
2.71666
2.71743
2.71773
2.71836
2.71968
2.72192
2.72474
2.72766
2.7302
2.73212
2.73353
2.73474
2.73604
2.73739
2.73889
2.74029
2.74138
2.74226
2.74312
2.74428
2.74626
2.74891
2.75169
2.75397
2.75535
2.75582
2.75571
2.75556
2.7561
2.75809
2.76098
2.76376
2.76582
2.76697
2.7673
2.7671
2.76714
2.7683
2.7706
2.77312
2.77508
2.77623
2.77681
2.7771
2.77749
2.77848
2.78009
2.78184
2.78325
2.78421
2.78504
2.786
2.78698
2.78789
2.78859
2.78881
2.78842
2.7877
2.78732
2.78766
2.78905
2.79141
2.79361
2.79502
2.79585
2.7962
2.79655
2.7975
2.79919
2.80202
2.80651
2.8121
2.81718
2.82025
2.82144
1
1
1
1
1
1
1
1
1
1
1
1
1
1
1
1
1
1
1
1
1
1
1
1
1
1
1
1
1
1
1
1
1
1
1
1
1
1
1
1
1
1
1
1
1
1
1
1
1
1
1
1
1
1
1
1
1
1
1
1
1
1
1
1
1
1
1
1
1
1
1
1
1
1
1
1
1
1
1
1
1
1
1
1
1
1
1
1
1
1
1
1
1
1
1
1
1
1
1
1
1.69589
2.58412
2.67441
2.68232
2.68619
2.68764
2.68849
2.68972
2.69164
2.69375
2.696
2.6983
2.7008
2.70348
2.70623
2.70912
2.71177
2.71369
2.71492
2.71595
2.71733
2.71915
2.7215
2.72416
2.72674
2.72894
2.73076
2.73231
2.73374
2.73516
2.73652
2.73783
2.73902
2.74012
2.74128
2.74252
2.744
2.74605
2.74842
2.75075
2.75272
2.75402
2.7547
2.75489
2.75502
2.75577
2.75774
2.76042
2.76293
2.76469
2.76561
2.76582
2.76558
2.76591
2.76761
2.7702
2.77261
2.77414
2.77482
2.77512
2.7754
2.77609
2.77755
2.77937
2.78091
2.78187
2.78246
2.78322
2.7844
2.78567
2.78686
2.78763
2.78765
2.78697
2.78611
2.78579
2.78629
2.78792
2.79035
2.79243
2.79364
2.79434
2.79464
2.79508
2.79621
2.79803
2.80088
2.80532
2.81077
2.81572
2.81873
2.81995
1
1
1
1
1
1
1
1
1
1
1
1
1
1
1
1
1
1
1
1
1
1
1
1
1
1
1
1
1
1
1
1
1
1
1
1
1
1
1
1
1
1
1
1
1
1
1
1
1
1
1
1
1
1
1
1
1
1
1
1
1
1
1
1
1
1
1
1
1
1
1
1
1
1
1
1
1
1
1
1
1
1
1
1
1
1
1
1
1
1
1
1
1
1
1
1
1
1
1
1
1.56998
2.5521
2.674
2.67845
2.68175
2.68321
2.68435
2.68598
2.68838
2.69113
2.69395
2.69664
2.69921
2.7015
2.70365
2.70592
2.7082
2.71016
2.71184
2.71362
2.71579
2.71811
2.7206
2.72304
2.72522
2.7271
2.72891
2.73075
2.73246
2.73402
2.73535
2.73643
2.7374
2.7385
2.73997
2.74175
2.74366
2.74575
2.74775
2.7495
2.75106
2.75231
2.75332
2.75408
2.75474
2.75573
2.75743
2.75954
2.76148
2.76296
2.76393
2.7643
2.76438
2.76521
2.76719
2.76964
2.77166
2.77281
2.77325
2.77348
2.77387
2.77488
2.77662
2.77848
2.77974
2.78029
2.78066
2.7814
2.78277
2.78438
2.7858
2.78654
2.78634
2.78537
2.78445
2.78424
2.78494
2.78681
2.78922
2.79111
2.79214
2.79274
2.79306
2.79364
2.7949
2.79678
2.79962
2.80394
2.80926
2.81413
2.81718
2.81851
1
1
1
1
1
1
1
1
1
1
1
1
1
1
1
1
1
1
1
1
1
1
1
1
1
1
1
1
1
1
1
1
1
1
1
1
1
1
1
1
1
1
1
1
1
1
1
1
1
1
1
1
1
1
1
1
1
1
1
1
1
1
1
1
1
1
1
1
1
1
1
1
1
1
1
1
1
1
1
1
1
1
1
1
1
1
1
1
1
1
1
1
1
1
1
1
1
1
1
1
1.43458
2.50874
2.67333
2.67566
2.67808
2.67939
2.6808
2.68271
2.68533
2.68844
2.69161
2.69453
2.69714
2.69917
2.70093
2.70275
2.70466
2.70652
2.70847
2.71079
2.71356
2.71635
2.71905
2.72143
2.72333
2.72492
2.72668
2.72871
2.73071
2.73242
2.73372
2.73468
2.7356
2.73675
2.73841
2.7406
2.74287