/*--------------------------------*- C++ -*----------------------------------*\
  =========                 |
  \\      /  F ield         | OpenFOAM: The Open Source CFD Toolbox
   \\    /   O peration     | Website:  https://openfoam.org
    \\  /    A nd           | Version:  7
     \\/     M anipulation  |
\*---------------------------------------------------------------------------*/
FoamFile
{
    version     2.0;
    format      ascii;
    class       volScalarField;
    location    "2.7";
    object      rho;
}
// * * * * * * * * * * * * * * * * * * * * * * * * * * * * * * * * * * * * * //

dimensions      [1 -3 0 0 0 0 0];

internalField   nonuniform List<scalar> 
4032
(
1.40001
1.40001
1.40001
1.40001
1.40001
1.40001
1.40001
1.40001
1.40001
1.40001
1.40001
1.40001
3.99835
5.47489
5.51415
5.57488
5.63866
5.70422
5.77103
5.83443
5.887
5.9194
5.93568
5.94947
1.40001
1.40001
1.40001
1.40001
1.40001
1.40001
1.40001
1.40001
1.40001
1.40001
1.40001
1.40001
3.9217
5.4511
5.50319
5.56419
5.62813
5.69241
5.75742
5.81838
5.86828
5.898
5.91176
5.92426
1.40001
1.40001
1.40001
1.40001
1.40001
1.40001
1.40001
1.40001
1.40001
1.40001
1.40001
1.40001
3.77104
5.42201
5.48283
5.54372
5.6079
5.67075
5.73379
5.79237
5.84004
5.86785
5.87929
5.89221
1.40001
1.40001
1.40001
1.40001
1.40001
1.40001
1.40001
1.40001
1.40001
1.40001
1.40001
1.40001
3.55021
5.37851
5.45632
5.51587
5.58012
5.64125
5.7022
5.75824
5.80256
5.82519
5.82879
5.83392
1.40001
1.40001
1.40001
1.40001
1.40001
1.40001
1.40001
1.40001
1.40001
1.40001
1.40001
1.40001
3.26091
5.3114
5.42586
5.48151
5.54223
5.59769
5.6519
5.70004
5.73628
5.75463
5.75512
5.76714
1.40001
1.40001
1.40001
1.40001
1.40001
1.40001
1.40001
1.40001
1.40001
1.40001
1.40001
1.40001
2.90613
5.20549
5.4032
5.45037
5.50199
5.54748
5.59181
5.6318
5.66105
5.67522
5.66828
5.65146
1.40001
1.40001
1.40001
1.40001
1.40001
1.40001
1.40001
1.40001
1.40001
1.40001
1.40001
1.40001
2.49787
5.05069
5.4192
5.44067
5.47323
5.50212
5.52882
5.54997
5.55467
5.53253
5.49677
5.47707
1.40001
1.40001
1.40001
1.40001
1.40001
1.40001
1.40001
1.40001
1.40001
1.40001
1.40001
1.40001
2.0466
4.8205
5.43306
5.42252
5.44245
5.45558
5.4618
5.46117
5.43705
5.39339
5.31782
5.27613
1.40001
1.40001
1.40001
1.40001
1.40001
1.40001
1.40001
1.40001
1.40001
1.40001
1.40001
1.40001
1.58306
4.48997
5.46949
5.41527
5.40922
5.39475
5.37558
5.34898
5.28797
5.1776
4.85518
3.99363
1.40001
1.40001
1.40001
1.40001
1.40001
1.40001
1.40001
1.40001
1.40001
1.40001
1.40001
1.40001
1.40752
3.87598
5.27058
5.29121
5.31087
5.30188
5.27192
5.22042
5.12114
4.93293
4.59798
3.69647
1.40001
1.40001
1.40001
1.40001
1.40001
1.40001
1.40001
1.40001
1.40001
1.40001
1.40001
1.40001
1.39997
3.11177
5.10096
5.25519
5.25869
5.23902
5.19347
5.11058
4.97811
4.7426
4.39076
3.5643
1.40001
1.40001
1.40001
1.40001
1.40001
1.40001
1.40001
1.40001
1.40001
1.40001
1.40001
1.40001
1.4
2.29624
4.84288
5.22799
5.20577
5.1747
5.11127
5.00399
4.84446
4.60343
4.21379
3.55267
1.40001
1.40001
1.40001
1.40001
1.40001
1.40001
1.40001
1.40001
1.40001
1.40001
1.40001
1.40001
1.4
1.57612
4.40669
5.27279
5.17293
5.10066
5.01665
4.89851
4.72806
4.49367
4.10083
3.58356
1.40001
1.40001
1.40001
1.40001
1.40001
1.40001
1.40001
1.40001
1.40001
1.40001
1.40001
1.40001
1.4
1.40421
3.55811
5.05124
5.04447
5.00244
4.9237
4.8015
4.63713
4.3989
4.04268
3.62891
1.40001
1.40001
1.40001
1.40001
1.40001
1.40001
1.40001
1.40001
1.40001
1.40001
1.40001
1.40001
1.40001
1.39995
2.4356
4.82799
5.03349
4.98277
4.88918
4.75003
4.58161
4.33425
4.02289
3.68327
1.40001
1.40001
1.40001
1.40001
1.40001
1.40001
1.40001
1.40001
1.40001
1.40001
1.40001
1.40001
1.40001
1.39999
1.58684
4.21814
5.03871
4.95921
4.85241
4.70086
4.52816
4.29231
4.01746
3.72351
1.40001
1.40001
1.40001
1.40001
1.40001
1.40001
1.40001
1.40001
1.40001
1.40001
1.40001
1.40001
1.40001
1.4
1.40391
3.08129
4.8917
4.89394
4.79992
4.66973
4.49473
4.27562
4.02537
3.76288
1.40001
1.40001
1.40001
1.40001
1.40001
1.40001
1.40001
1.40001
1.40001
1.40001
1.40001
1.40001
1.40001
1.4
1.39998
1.81502
4.55421
4.96029
4.80795
4.6704
4.48537
4.26946
4.03411
3.79259
1.40001
1.40001
1.40001
1.40001
1.40001
1.40001
1.40001
1.40001
1.40001
1.40001
1.40001
1.40001
1.40001
1.40001
1.4
1.42386
3.48093
4.81538
4.7701
4.65178
4.47709
4.27005
4.04904
3.82335
1.40001
1.40001
1.40001
1.40001
1.40001
1.40001
1.40001
1.40001
1.40001
1.40001
1.40001
1.40001
1.40001
1.40001
1.4
1.40001
2.02261
4.53657
4.82917
4.6706
4.4905
4.28997
4.08432
3.87125
1.40001
1.40001
1.40001
1.40001
1.40001
1.40001
1.40001
1.40001
1.40001
1.40001
1.40001
1.40001
1.40001
1.40001
1.4
1.4
1.45504
3.5314
4.7327
4.64662
4.48629
4.30757
4.11535
3.91313
1.40001
1.40001
1.40001
1.40001
1.40001
1.40001
1.40001
1.40001
1.40001
1.40001
1.40001
1.40001
1.40001
1.40001
1.40001
1.40001
1.4003
2.06786
4.356
4.68101
4.50963
4.33787
4.15193
3.95978
1.40001
1.40001
1.40001
1.40001
1.40001
1.40001
1.40001
1.40001
1.40001
1.40001
1.40001
1.40001
1.40001
1.40001
1.40001
1.40001
1.40001
1.46067
3.27957
4.59626
4.5142
4.34968
4.17834
4.00356
1.40001
1.40001
1.40001
1.40001
1.40001
1.40001
1.40001
1.40001
1.40001
1.40001
1.40001
1.40001
1.40001
1.40001
1.40001
1.40001
1.40001
1.40056
1.92467
4.06164
4.55179
4.37729
4.22164
4.05766
1.40001
1.40001
1.40001
1.40001
1.40001
1.40001
1.40001
1.40001
1.40001
1.40001
1.40001
1.40001
1.40001
1.40001
1.40001
1.40001
1.40001
1.40001
1.43567
2.75541
4.37665
4.39994
4.26168
4.10495
1.40001
1.40001
1.40001
1.40001
1.40001
1.40001
1.40001
1.40001
1.40001
1.40001
1.40001
1.40001
1.40001
1.40001
1.40001
1.40001
1.40001
1.40001
1.40037
1.66404
3.56838
4.46038
4.33259
4.17007
1.40001
1.40001
1.40001
1.40001
1.40001
1.40001
1.40001
1.40001
1.40001
1.40001
1.40001
1.40001
1.40001
1.40001
1.40001
1.40001
1.40001
1.40001
1.40001
1.40941
2.16074
4.0447
4.37353
4.22753
1.40001
1.40001
1.40001
1.40001
1.40001
1.40001
1.40001
1.40001
1.40001
1.40001
1.40001
1.40001
1.40001
1.40001
1.40001
1.40001
1.40001
1.40001
1.40001
1.40008
1.47549
2.80116
4.20781
4.28329
1.40001
1.40001
1.40001
1.40001
1.40001
1.40001
1.40001
1.40001
1.40001
1.40001
1.40001
1.40001
1.40001
1.40001
1.40001
1.40001
1.40001
1.40001
1.40001
1.40001
1.40134
1.67349
3.3669
4.2599
1.40001
1.40001
1.40001
1.40001
1.40001
1.40001
1.40001
1.40001
1.40001
1.40001
1.40001
1.40001
1.40001
1.40001
1.40001
1.40001
1.40001
1.40001
1.40001
1.40001
1.40001
1.41081
2.01196
3.74166
1.40001
1.40001
1.40001
1.40001
1.40001
1.40001
1.40001
1.40001
1.40001
1.40001
1.40001
1.40001
1.40001
1.40001
1.40001
1.40001
1.40001
1.40001
1.40001
1.40001
1.40001
1.4001
1.44929
2.4076
1.40001
1.40001
1.40001
1.40001
1.40001
1.40001
1.40001
1.40001
1.40001
1.40001
1.40001
1.40001
1.40001
1.40001
1.40001
1.40001
1.40001
1.40001
1.40001
1.40001
1.40001
1.40001
1.4008
1.53586
1.40001
1.40001
1.40001
1.40001
1.40001
1.40001
1.40001
1.40001
1.40001
1.40001
1.40001
1.40001
1.40001
1.40001
1.40001
1.40001
1.40001
1.40001
1.40001
1.40001
1.40001
1.40001
1.40001
1.40359
1.40001
1.40001
1.40001
1.40001
1.40001
1.40001
1.40001
1.40001
1.40001
1.40001
1.40001
1.40001
1.40001
1.40001
1.40001
1.40001
1.40001
1.40001
1.40001
1.40001
1.40001
1.40001
1.40001
1.40003
1.40001
1.40001
1.40001
1.40001
1.40001
1.40001
1.40001
1.40001
1.40001
1.40001
1.40001
1.40001
1.40001
1.40001
1.40001
1.40001
1.40001
1.40001
1.40001
1.40001
1.40001
1.40001
1.40001
1.40001
1.40001
1.40001
1.40001
1.40001
1.40001
1.40001
1.40001
1.40001
1.40001
1.40001
1.40001
1.40001
1.40001
1.40001
1.40001
1.40001
1.40001
1.40001
1.40001
1.40001
1.40001
1.40001
1.40001
1.40001
1.40001
1.40001
1.40001
1.40001
1.40001
1.40001
1.40001
1.40001
1.40001
1.40001
1.40001
1.40001
1.40001
1.40001
1.40001
1.40001
1.40001
1.40001
1.40001
1.40001
1.40001
1.40001
1.40001
1.40001
1.40001
1.40001
1.40001
1.40001
1.40001
1.40001
1.40001
1.40001
1.40001
1.40001
1.40001
1.40001
1.40001
1.40001
1.40001
1.40001
1.40001
1.40001
1.40001
1.40001
1.40001
1.40001
1.40001
1.40001
1.40001
1.40001
1.40001
1.40001
1.40001
1.40001
1.40001
1.40001
1.40001
1.40001
1.40001
1.40001
1.40001
1.40001
1.40001
1.40001
1.40001
1.40001
1.40001
1.40001
1.40001
1.40001
1.40001
1.40001
1.40001
1.40001
1.40001
1.40001
1.40001
1.40001
1.40001
1.40001
1.40001
1.40001
1.40001
1.40001
1.40001
1.40001
1.40001
1.40001
1.40001
1.40001
1.40001
1.40001
1.40001
1.40001
1.40001
1.40001
1.30931
0.502681
0.254739
0.218955
0.221192
0.255637
0.349353
0.453496
0.571961
0.672661
0.78713
0.893946
0.917032
0.923441
0.949526
0.975797
0.996381
1.02986
1.05735
1.05484
1.03736
1.01986
1.02299
1.03781
1.06479
1.0859
1.08789
1.08403
1.0779
1.07957
1.08793
1.0999
1.10077
1.0919
1.12668
2.21002
3.28647
3.36451
3.35523
3.31845
3.25137
3.19325
3.14952
3.12491
3.10579
3.08231
3.04765
3.00155
2.95346
2.91158
2.87936
2.85454
2.8356
2.81086
2.77112
2.72765
2.68086
2.63044
2.58255
2.54739
2.51974
2.49929
2.48779
2.46874
2.441
2.40852
2.3649
2.31408
2.27482
2.24963
2.23001
2.21866
2.21353
2.19893
2.17739
2.14366
2.09035
2.0451
2.01981
2.00105
1.98422
1.9701
1.95517
1.93924
1.92348
1.90553
1.87714
1.83206
1.79159
1.76654
1.74725
1.7289
1.71157
1.69543
1.68092
1.6487
1.99548
1.19694
0.840591
0.704248
0.589916
0.555988
0.560543
0.5557
0.554432
0.574208
0.626802
0.714112
0.799672
0.850503
0.883125
0.923814
0.96686
1.01064
1.04966
1.05765
1.05938
1.06023
1.06144
1.06198
1.06853
1.08388
1.0981
1.10817
1.11087
1.10958
1.10505
1.0996
1.10033
1.12945
1.32322
2.1548
3.28256
3.44064
3.38338
3.30888
3.23974
3.2047
3.1821
3.16399
3.12952
3.09639
3.06671
3.03318
2.99121
2.94761
2.90595
2.86919
2.83965
2.81605
2.78811
2.75015
2.70994
2.664
2.61053
2.56124
2.52756
2.50205
2.48278
2.4675
2.44621
2.41732
2.38309
2.34339
2.29982
2.26316
2.24035
2.22324
2.20753
2.19041
2.16988
2.14317
2.10602
2.06432
2.02929
2.00606
1.98879
1.97307
1.95756
1.9415
1.92441
1.90248
1.87155
1.83345
1.79746
1.77224
1.7533
1.73564
1.71854
1.70077
1.68367
1.64855
2.49358
1.83487
1.38429
1.1049
0.941424
0.843939
0.786568
0.727373
0.646287
0.639567
0.65513
0.70052
0.76885
0.829619
0.865167
0.899345
0.950759
1.00546
1.05715
1.08974
1.10874
1.13225
1.14513
1.14331
1.12957
1.12606
1.13098
1.14076
1.15553
1.15854
1.15391
1.13872
1.16158
1.35797
1.77892
2.08502
2.83341
3.43366
3.53493
3.48983
3.42067
3.34191
3.29844
3.26212
3.21945
3.17452
3.13561
3.0997
3.06433
3.02394
2.98087
2.93409
2.89089
2.85436
2.82245
2.78884
2.75337
2.71566
2.67021
2.61837
2.57039
2.53077
2.49958
2.47266
2.44643
2.42451
2.40253
2.37821
2.35056
2.31373
2.27024
2.23586
2.21256
2.18995
2.16486
2.13908
2.11723
2.09436
2.06381
2.02795
2.00055
1.98225
1.96573
1.94892
1.93003
1.90554
1.87215
1.83323
1.79966
1.77671
1.76071
1.74635
1.73185
1.71506
1.69647
1.65663
2.82554
2.25003
1.8683
1.55835
1.29102
1.13576
1.05008
0.9778
0.89235
0.833049
0.794787
0.76529
0.76845
0.782279
0.798963
0.819804
0.869818
0.935277
0.995201
1.04438
1.07646
1.10676
1.14963
1.17987
1.17912
1.17715
1.18169
1.18812
1.20063
1.20089
1.19163
1.21485
1.42106
1.85274
2.23192
2.22283
2.33992
2.83035
3.28401
3.53056
3.56598
3.47156
3.40234
3.33386
3.29081
3.25913
3.22023
3.17741
3.13543
3.09026
3.04466
2.99904
2.95076
2.91055
2.87555
2.84059
2.80488
2.76666
2.72369
2.67626
2.62807
2.58284
2.5437
2.51083
2.48355
2.46005
2.43825
2.41699
2.39379
2.3649
2.31971
2.26593
2.22678
2.19776
2.1734
2.15474
2.13922
2.12217
2.1011
2.06946
2.02871
1.99807
1.97834
1.95984
1.93895
1.91307
1.88259
1.85263
1.82387
1.79499
1.77369
1.75953
1.74607
1.7313
1.7148
1.67497
3.06506
2.57127
2.1959
1.91453
1.64844
1.45103
1.30693
1.18092
1.09122
1.01868
0.953538
0.873547
0.827906
0.822836
0.82743
0.843401
0.847486
0.852574
0.863401
0.899542
0.955677
1.01964
1.09385
1.14897
1.17342
1.1753
1.18045
1.19454
1.20251
1.21174
1.24114
1.43465
1.93547
2.2377
2.34332
2.31148
2.2835
2.34058
2.64387
3.15203
3.47468
3.52091
3.47888
3.41111
3.366
3.3213
3.27051
3.21654
3.17385
3.13593
3.09696
3.05455
3.00741
2.96109
2.92174
2.8863
2.85067
2.81277
2.77176
2.7277
2.68144
2.63286
2.5848
2.54882
2.52356
2.50162
2.48154
2.45988
2.436
2.40634
2.36093
2.29718
2.24329
2.21491
2.19656
2.1822
2.17098
2.15566
2.13684
2.11164
2.07122
2.02393
1.99144
1.96783
1.94426
1.91981
1.8982
1.87979
1.85956
1.83185
1.80013
1.77772
1.76186
1.74612
1.72943
1.69363
3.20902
2.80214
2.46825
2.1786
1.91675
1.7258
1.56186
1.40046
1.2769
1.20809
1.14682
1.06366
0.967379
0.933981
0.922009
0.909697
0.894772
0.874852
0.860877
0.85236
0.862717
0.894605
0.947254
1.01744
1.10006
1.14206
1.15959
1.18454
1.18907
1.22432
1.42979
1.89604
2.27065
2.35366
2.34646
2.31515
2.27085
2.24836
2.28158
2.50626
2.97453
3.36029
3.4218
3.43566
3.41987
3.36049
3.2801
3.21471
3.17677
3.14693
3.11804
3.08254
3.04037
2.99101
2.9424
2.90206
2.86671
2.83306
2.79834
2.76136
2.72201
2.67945
2.63234
2.58733
2.55632
2.53255
2.51021
2.48648
2.46001
2.42794
2.38639
2.33277
2.27572
2.24081
2.2219
2.20633
2.19523
2.18176
2.16363
2.14219
2.10788
2.05391
2.004
1.97316
1.9507
1.93347
1.91954
1.90576
1.89067
1.86995
1.83765
1.80265
1.77844
1.75824
1.73981
1.70923
3.33002
2.97691
2.67931
2.40221
2.13227
1.94611
1.79107
1.62059
1.45599
1.3623
1.29953
1.23598
1.16498
1.08283
1.0067
0.961775
0.936488
0.920118
0.909967
0.901051
0.890983
0.877237
0.878218
0.893104
0.939704
1.00746
1.06913
1.1179
1.16283
1.41581
1.84162
2.2038
2.37249
2.37756
2.34963
2.30591
2.27
2.24316
2.23398
2.24373
2.37318
2.7697
3.18374
3.37053
3.42036
3.37906
3.28463
3.2184
3.18061
3.1521
3.12916
3.09837
3.05859
3.01008
2.95525
2.9063
2.86978
2.8408
2.81127
2.77897
2.74511
2.70952
2.6695
2.62417
2.58265
2.55143
2.52432
2.49645
2.46535
2.43159
2.39765
2.36231
2.32029
2.27417
2.24443
2.22597
2.20996
2.1944
2.17605
2.15605
2.12776
2.07711
2.01382
1.97818
1.96164
1.94865
1.93861
1.92901
1.91553
1.89898
1.87078
1.82449
1.78518
1.76127
1.74828
1.72714
3.41876
3.10769
2.83155
2.57785
2.33126
2.12401
1.95751
1.80816
1.6726
1.53975
1.40662
1.3467
1.31031
1.25367
1.18067
1.0887
1.02065
1.00338
0.993932
0.978563
0.954956
0.922257
0.889356
0.885444
0.889296
0.901639
0.933387
0.976127
1.21111
1.72623
2.05164
2.21288
2.30338
2.30365
2.28446
2.27222
2.27002
2.25367
2.23604
2.22556
2.22061
2.29363
2.59923
3.03193
3.29159
3.34956
3.29276
3.23739
3.19803
3.16661
3.14258
3.10986
3.07218
3.02574
2.97102
2.91628
2.87513
2.84602
2.81808
2.78993
2.75996
2.72901
2.69545
2.65544
2.60921
2.56653
2.53127
2.4986
2.46559
2.43449
2.40798
2.38266
2.35251
2.31105
2.26635
2.23583
2.21522
2.19856
2.18298
2.16238
2.13514
2.0943
2.03858
1.99319
1.97254
1.95903
1.94996
1.9464
1.93598
1.92089
1.89582
1.84278
1.78603
1.76182
1.75225
1.73803
3.48917
3.21183
2.95839
2.7151
2.48809
2.29783
2.1152
1.93678
1.8225
1.71576
1.59261
1.46922
1.38679
1.34965
1.3107
1.2527
1.17854
1.09424
1.04888
1.03046
1.01095
0.989142
0.967561
0.93379
0.902569
0.901271
0.914925
1.06603
1.5166
1.85336
1.98971
2.04524
2.06596
2.10358
2.15514
2.20133
2.2425
2.2401
2.22833
2.22597
2.21922
2.19657
2.2321
2.44115
2.81561
3.16606
3.22941
3.24419
3.23222
3.1982
3.16705
3.1258
3.08587
3.03884
2.98774
2.9352
2.88817
2.85579
2.82879
2.80295
2.77721
2.74797
2.71679
2.67961
2.62983
2.57573
2.53392
2.50109
2.47201
2.44669
2.42277
2.39814
2.37076
2.33503
2.2886
2.24754
2.21982
2.19677
2.17341
2.15018
2.12631
2.10238
2.07296
2.03296
1.99453
1.97473
1.9614
1.94998
1.93877
1.92345
1.89796
1.85267
1.79859
1.76952
1.75953
1.74653
3.54158
3.29448
3.06089
2.82813
2.61507
2.43607
2.26399
2.08723
1.94239
1.8306
1.73358
1.63388
1.54109
1.43808
1.36951
1.34447
1.30375
1.24022
1.16906
1.10409
1.06993
1.0593
1.04753
1.01279
0.965358
0.96154
1.07503
1.43923
1.82493
1.89506
1.88845
1.8857
1.88736
1.90594
1.96113
2.02375
2.07712
2.11775
2.14641
2.17708
2.18717
2.18128
2.17437
2.18558
2.29102
2.60548
2.9514
3.15021
3.20124
3.21858
3.19503
3.1459
3.10525
3.05906
3.01095
2.95873
2.90461
2.86539
2.83908
2.81468
2.79378
2.76833
2.73881
2.70291
2.64757
2.57874
2.5331
2.50669
2.48506
2.46362
2.44037
2.41445
2.38463
2.34806
2.30295
2.25888
2.22549
2.1983
2.17235
2.14786
2.12775
2.11168
2.09491
2.07116
2.03496
1.99608
1.96851
1.94833
1.92869
1.90662
1.88204
1.85467
1.82803
1.7986
1.77463
1.75173
3.59061
3.36804
3.15072
2.93408
2.73572
2.55361
2.37989
2.22249
2.08879
1.96095
1.82576
1.74041
1.67319
1.5803
1.48545
1.4147
1.36637
1.32902
1.28579
1.23649
1.17233
1.11401
1.08953
1.07132
1.05616
1.16027
1.53248
1.89265
1.96679
1.9295
1.88773
1.87288
1.87407
1.86237
1.85632
1.85874
1.86408
1.89076
1.93477
1.98995
2.04305
2.08896
2.10921
2.10457
2.12204
2.19069
2.39733
2.7372
3.00919
3.13127
3.18106
3.16973
3.12832
3.09087
3.04651
2.99513
2.93413
2.8782
2.84787
2.82388
2.80517
2.78465
2.75742
2.72502
2.67144
2.59284
2.53944
2.51632
2.49734
2.47799
2.45709
2.43264
2.40186
2.36166
2.313
2.26805
2.23494
2.20731
2.18042
2.15625
2.13852
2.12329
2.10793
2.09044
2.06351
2.02121
1.97735
1.94533
1.92063
1.89722
1.87362
1.85848
1.84666
1.82962
1.80363
1.76231
3.6514
3.43951
3.23057
3.02527
2.83999
2.66422
2.49013
2.33712
2.20688
2.08496
1.95669
1.84896
1.76243
1.68267
1.60519
1.5345
1.46315
1.38301
1.34632
1.32567
1.28621
1.21817
1.15999
1.15066
1.24419
1.62106
2.03185
2.10715
2.05564
2.0044
1.96406
1.93911
1.91371
1.88562
1.86399
1.84812
1.8447
1.82978
1.80909
1.80968
1.83473
1.87498
1.92322
1.96704
2.00952
2.04194
2.08016
2.20381
2.49007
2.78838
3.0406
3.09252
3.11428
3.1178
3.07983
3.03649
2.97851
2.90625
2.86018
2.833
2.81133
2.79141
2.76657
2.73713
2.69357
2.62776
2.5625
2.52669
2.50663
2.4884
2.46943
2.44749
2.42014
2.38199
2.3301
2.27793
2.24371
2.21982
2.19779
2.17739
2.15742
2.13686
2.11699
2.09767
2.0743
2.0383
1.99071
1.94778
1.91712
1.89416
1.87946
1.86871
1.85708
1.84411
1.82707
1.78095
3.70712
3.50118
3.299
3.11342
2.93642
2.76105
2.59542
2.4557
2.31935
2.18521
2.06676
1.96836
1.87223
1.77618
1.68816
1.62781
1.56672
1.49633
1.41803
1.37442
1.34617
1.30753
1.27778
1.38032
1.75541
2.17002
2.26633
2.2148
2.15811
2.11496
2.07424
2.031
1.98661
1.9453
1.91142
1.88283
1.85779
1.83584
1.80926
1.78155
1.76578
1.75906
1.76397
1.79255
1.82908
1.86538
1.89439
1.9228
1.99363
2.17464
2.51079
2.80006
2.98451
3.07097
3.07834
3.06566
3.01136
2.94972
2.89593
2.84223
2.80771
2.78503
2.76319
2.73622
2.70415
2.66279
2.60628
2.54805
2.51442
2.49409
2.47578
2.45621
2.43285
2.40265
2.35854
2.29995
2.25258
2.22892
2.21263
2.19664
2.1785
2.15671
2.13116
2.10267
2.07239
2.04001
1.99971
1.95687
1.92554
1.90675
1.8941
1.88182
1.86947
1.85671
1.84208
1.7976
3.76699
3.5709
3.37705
3.20157
3.03034
2.85538
2.70046
2.56064
2.42517
2.28686
2.17438
2.06903
1.97121
1.8741
1.79072
1.71024
1.64
1.58901
1.53
1.45718
1.40124
1.38356
1.49386
1.91269
2.33873
2.43241
2.38006
2.31803
2.27234
2.22587
2.17182
2.11646
2.06735
2.02833
1.99678
1.96679
1.9342
1.89819
1.85772
1.80769
1.76341
1.74552
1.74317
1.74063
1.74159
1.74689
1.74389
1.74738
1.74901
1.76445
1.86579
2.14063
2.4791
2.82566
2.9545
3.01079
3.00377
2.97878
2.92915
2.86226
2.80272
2.77477
2.75245
2.72756
2.70329
2.67762
2.64153
2.5847
2.52689
2.49667
2.47704
2.45862
2.43826
2.415
2.38368
2.33331
2.27221
2.23543
2.21803
2.20366
2.18857
2.17079
2.14828
2.11843
2.08077
2.03517
1.99128
1.96422
1.94838
1.93424
1.91787
1.89907
1.88108
1.86744
1.85566
1.8125
3.82234
3.63711
3.45941
3.2872
3.11487
2.94924
2.80393
2.66117
2.51962
2.38758
2.27788
2.16795
2.06331
1.9631
1.88606
1.81001
1.72783
1.65507
1.60167
1.54541
1.51057
1.63194
2.06286
2.50569
2.59481
2.54073
2.47801
2.43033
2.38466
2.3341
2.2759
2.21188
2.15698
2.11624
2.08248
2.05028
2.01685
1.97805
1.92979
1.8695
1.81001
1.77358
1.752
1.73551
1.72832
1.72113
1.71608
1.70887
1.68977
1.64749
1.63221
1.6626
1.79403
2.10413
2.47131
2.76846
2.9202
2.94514
2.92959
2.88311
2.81227
2.76485
2.73323
2.71128
2.69513
2.677
2.65429
2.6151
2.5581
2.50281
2.47138
2.45122
2.4345
2.41639
2.39295
2.35871
2.30533
2.25229
2.22369
2.20472
2.18811
2.17228
2.15498
2.1324
2.09775
2.04628
1.99668
1.97569
1.96382
1.95138
1.93766
1.92263
1.90309
1.87618
1.84663
1.79944
3.88447
3.70795
3.5399
3.37372
3.20197
3.04563
2.90031
2.758
2.61094
2.48891
2.37288
2.26363
2.15211
2.05987
1.97448
1.89616
1.82185
1.73825
1.67087
1.64867
1.79727
2.28291
2.71078
2.77401
2.70831
2.63327
2.58649
2.54264
2.49475
2.44184
2.37945
2.30735
2.24288
2.19686
2.15941
2.12451
2.0903
2.05486
2.01347
1.95718
1.88715
1.83112
1.79861
1.77576
1.75614
1.73731
1.71793
1.69793
1.67958
1.65545
1.6225
1.59242
1.58257
1.61389
1.76315
2.05719
2.42693
2.68896
2.85521
2.85342
2.82479
2.78242
2.73607
2.71242
2.69281
2.66652
2.64201
2.61654
2.57544
2.51796
2.4761
2.45032
2.4277
2.40711
2.3908
2.36901
2.32577
2.271
2.23106
2.20806
2.19126
2.17617
2.15979
2.13897
2.11022
2.06984
2.02259
1.99118
1.97722
1.96782
1.95967
1.94668
1.92489
1.89108
1.85022
1.7966
3.94224
3.77918
3.61393
3.44696
3.28611
3.13679
2.98828
2.8395
2.70226
2.58394
2.46581
2.35215
2.24068
2.15637
2.06685
1.9834
1.893
1.81814
1.7929
1.9717
2.50199
2.94009
2.97328
2.90015
2.81479
2.7465
2.69646
2.64542
2.59221
2.53697
2.47619
2.40514
2.33299
2.2783
2.23768
2.20187
2.16696
2.13049
2.0894
2.03749
1.96965
1.90475
1.86231
1.83068
1.8018
1.77442
1.74951
1.72514
1.70019
1.67396
1.64168
1.60019
1.57396
1.56259
1.55418
1.57747
1.71439
1.98563
2.36086
2.59495
2.73923
2.75743
2.74811
2.73984
2.70847
2.67444
2.64541
2.61133
2.56685
2.52268
2.48465
2.45444
2.42939
2.40484
2.3746
2.3406
2.31221
2.28178
2.25049
2.22079
2.19402
2.1703
2.1479
2.12778
2.10852
2.08412
2.05315
2.0229
1.99564
1.97178
1.95103
1.93382
1.91928
1.89704
1.86252
1.80673
4.00879
3.84907
3.68546
3.5199
3.36695
3.21829
3.07209
2.92434
2.79878
2.67521
2.56002
2.43837
2.34073
2.24674
2.16011
2.06213
1.97136
1.95797
2.17504
2.74447
3.18993
3.2158
3.12479
3.0194
2.92483
2.85718
2.79805
2.74151
2.68611
2.62989
2.56942
2.50004
2.42369
2.35876
2.31116
2.27096
2.23279
2.19458
2.15421
2.10806
2.05055
1.98266
1.92595
1.88823
1.85709
1.82651
1.79643
1.76671
1.73543
1.70687
1.67503
1.64027
1.60477
1.57537
1.54929
1.53737
1.52848
1.54641
1.65768
1.92396
2.26073
2.50563
2.62744
2.70211
2.70618
2.69383
2.66167
2.6129
2.5644
2.52286
2.48885
2.46212
2.43922
2.41091
2.37282
2.33265
2.29916
2.2791
2.26166
2.2341
2.20066
2.17285
2.1501
2.12901
2.10657
2.08882
2.07473
2.05473
2.01864
1.97742
1.94954
1.93069
1.91262
1.89077
1.8685
1.82711
4.06287
3.90289
3.74018
3.58828
3.44193
3.29426
3.14526
3.01363
2.89058
2.76742
2.64488
2.53009
2.43435
2.33773
2.23591
2.13189
2.13373
2.41422
3.0202
3.40352
3.41164
3.32379
3.22519
3.12976
3.03762
2.96276
2.89732
2.83628
2.77805
2.72012
2.6595
2.5906
2.51119
2.43604
2.37951
2.33447
2.2935
2.25418
2.21513
2.17413
2.12665
2.06807
2.00518
1.95341
1.91377
1.87994
1.84824
1.81582
1.78166
1.74682
1.70948
1.67297
1.638
1.6094
1.58138
1.55796
1.53521
1.51779
1.49475
1.50763
1.60162
1.87287
2.17763
2.47907
2.59771
2.62921
2.62968
2.61192
2.57253
2.53051
2.49293
2.46725
2.44613
2.41716
2.37831
2.3417
2.31304
2.28421
2.25297
2.23
2.20768
2.18115
2.1564
2.13353
2.11428
2.09782
2.076
2.04212
2.0001
1.96827
1.94695
1.92951
1.91142
1.89271
1.87812
1.84257
4.14076
3.97489
3.81503
3.6669
3.52346
3.37426
3.23113
3.10723
2.97948
2.85531
2.72901
2.62532
2.52504
2.42075
2.30317
2.33118
2.70611
3.3684
3.67045
3.66559
3.55619
3.446
3.35595
3.25966
3.15936
3.0724
2.99788
2.92946
2.86526
2.80387
2.74208
2.67556
2.60047
2.52175
2.45454
2.40134
2.35484
2.31094
2.26823
2.22589
2.18207
2.13311
2.07732
2.02188
1.97495
1.93623
1.90195
1.86875
1.8358
1.80176
1.76459
1.72195
1.67573
1.635
1.60501
1.58387
1.56217
1.53554
1.50835
1.48355
1.45729
1.47262
1.57092
1.81431
2.12634
2.38674
2.54861
2.57177
2.55831
2.53136
2.4853
2.45008
2.42715
2.40464
2.38265
2.35961
2.3306
2.29487
2.25826
2.22244
2.19126
2.17291
2.1585
2.14577
2.13288
2.11282
2.08212
2.03891
1.99365
1.96282
1.94333
1.9262
1.90857
1.8944
1.88639
1.85883
4.22134
4.06087
3.89557
3.74814
3.60221
3.45128
3.3164
3.19069
3.06405
2.93397
2.8171
2.71263
2.60582
2.48964
2.53258
3.01539
3.76666
3.98507
3.89556
3.77753
3.67843
3.59285
3.50325
3.39862
3.2908
3.19194
3.10297
3.02204
2.94901
2.88234
2.8185
2.7538
2.68508
2.6123
2.54221
2.48138
2.42829
2.37883
2.33069
2.28326
2.23653
2.18952
2.1397
2.08734
2.03711
1.99265
1.9531
1.91548
1.87857
1.84262
1.80833
1.77346
1.73568
1.69412
1.65065
1.61051
1.57547
1.55066
1.52838
1.50037
1.47375
1.45562
1.43202
1.44104
1.53494
1.7502
2.06497
2.29047
2.46313
2.50331
2.4875
2.46708
2.44035
2.40906
2.38555
2.35864
2.32814
2.3011
2.26559
2.22055
2.18779
2.1701
2.15629
2.14126
2.12124
2.09479
2.05958
2.0198
1.98639
1.96689
1.95043
1.93268
1.91469
1.89931
1.88482
1.84508
4.23266
4.14914
3.98198
3.82842
3.67987
3.52901
3.40138
3.27342
3.14538
3.01484
2.89931
2.79649
2.68586
2.77022
3.33668
4.07688
4.35482
4.24183
4.05229
3.88759
3.79024
3.71331
3.62226
3.51814
3.41628
3.31913
3.22529
3.13558
3.05094
2.97248
2.90046
2.83196
2.76411
2.69597
2.62875
2.56539
2.50748
2.45342
2.4005
2.3471
2.29322
2.24087
2.191
2.14192
2.09215
2.0428
1.99652
1.95415
1.91352
1.87263
1.83343
1.7994
1.76954
1.73862
1.70352
1.66416
1.62217
1.58166
1.54276
1.51263
1.49078
1.46598
1.44012
1.42113
1.40237
1.40927
1.49465
1.6938
1.99051
2.21695
2.37428
2.42509
2.43339
2.43239
2.42087
2.38681
2.34413
2.29883
2.24544
2.20203
2.18585
2.1778
2.16629
2.14822
2.12162
2.08656
2.04691
2.01064
1.98847
1.96789
1.94866
1.93931
1.92532
1.90533
1.88389
1.84117
3.94998
4.19162
4.08109
3.9183
3.76127
3.61692
3.48602
3.35637
3.22597
3.09214
2.98728
2.89279
3.0451
3.74305
4.41884
4.5984
4.49848
4.35251
4.20857
4.06016
3.92877
3.82205
3.7227
3.62464
3.53133
3.44184
3.3523
3.26006
3.16623
3.07572
2.99267
2.91696
2.84584
2.77708
2.70946
2.64267
2.57806
2.51725
2.45951
2.40293
2.34631
2.2912
2.24011
2.19245
2.1449
2.09519
2.04424
1.99545
1.94978
1.90616
1.86396
1.82401
1.78797
1.75592
1.72545
1.69311
1.65868
1.62166
1.58355
1.54932
1.51431
1.48021
1.44825
1.42118
1.39441
1.38065
1.36826
1.37941
1.45345
1.65138
1.91326
2.14388
2.2662
2.36975
2.3851
2.37983
2.36118
2.31113
2.24416
2.2076
2.18715
2.16764
2.1486
2.12718
2.10059
2.06841
2.04024
2.02482
2.00942
1.98323
1.9548
1.92853
1.90625
1.8837
1.8645
1.83589
2.79715
4.04156
4.14336
4.02232
3.85154
3.71189
3.57421
3.4509
3.29846
3.18167
3.12018
3.38459
4.22019
4.86668
4.9009
4.76223
4.57826
4.46161
4.36715
4.24597
4.10298
3.96683
3.85095
3.74641
3.65011
3.56094
3.47325
3.38115
3.28241
3.18081
3.0849
3.00029
2.92561
2.85626
2.78779
2.71711
2.64424
2.57308
2.50668
2.44465
2.38572
2.33014
2.27849
2.23076
2.18445
2.13584
2.08281
2.028
1.9767
1.93204
1.89182
1.85153
1.81026
1.77119
1.73696
1.70522
1.67303
1.64208
1.61076
1.57412
1.53603
1.50756
1.48008
1.44819
1.41205
1.38156
1.35408
1.34667
1.33708
1.34714
1.4065
1.59236
1.83989
2.10626
2.22306
2.28271
2.29136
2.27729
2.24885
2.22271
2.1984
2.16869
2.14118
2.11749
2.09306
2.06876
2.04698
2.02078
1.99075
1.97351
1.95248
1.92342
1.90011
1.8785
1.86075
1.82856
1.67669
3.13191
4.06377
4.08459
3.95661
3.80107
3.67015
3.53111
3.37975
3.39679
3.79986
4.67524
5.31128
5.28134
5.0822
4.90054
4.74127
4.62563
4.52909
4.4127
4.27352
4.12408
3.98736
3.87144
3.76956
3.67411
3.57948
3.48201
3.37917
3.27228
3.16926
3.07661
2.99488
2.92142
2.85098
2.77835
2.7009
2.62085
2.54622
2.4813
2.423
2.3676
2.31365
2.26114
2.21094
2.1642
2.11494
2.05915
2.00296
1.95334
1.9125
1.87706
1.83943
1.7956
1.74948
1.7102
1.67808
1.64667
1.61557
1.59207
1.57298
1.54729
1.51392
1.473
1.43537
1.40611
1.37738
1.3549
1.33002
1.3188
1.30583
1.31158
1.37392
1.52937
1.76668
2.00485
2.17044
2.19272
2.18499
2.17333
2.14942
2.12818
2.12121
2.11493
2.10408
2.09051
2.06477
2.0316
1.99506
1.95495
1.93565
1.92173
1.9027
1.88253
1.86442
1.82993
1.41191
1.86188
3.37936
4.04894
4.0392
3.90623
3.7588
3.60598
3.71419
4.3802
5.22581
5.63494
5.6857
5.49242
5.28102
5.11035
4.96726
4.83031
4.6982
4.56624
4.42429
4.27278
4.12158
3.9829
3.86458
3.76303
3.66593
3.56281
3.45278
3.34064
3.23399
3.1382
3.05084
2.96768
2.89169
2.82156
2.74885
2.668
2.58313
2.50546
2.44425
2.3984
2.35342
2.30147
2.24433
2.18649
2.13177
2.07672
2.0213
1.97346
1.93006
1.88846
1.84848
1.8091
1.76698
1.72477
1.68749
1.65495
1.62651
1.59901
1.56761
1.53137
1.49778
1.46533
1.43244
1.41732
1.41032
1.39359
1.36769
1.34474
1.31494
1.28755
1.26425
1.26631
1.31954
1.46251
1.70058
1.90826
2.09606
2.13074
2.11672
2.09691
2.07264
2.05917
2.05976
2.06637
2.06132
2.04122
2.00278
1.95286
1.92295
1.89991
1.8804
1.86638
1.8575
1.83718
1.40012
1.43048
2.0645
3.53893
4.01975
3.9735
3.86278
4.16947
5.07561
5.93221
6.03667
5.96766
5.83051
5.65391
5.4584
5.28335
5.13338
4.98631
4.83627
4.6894
4.53859
4.38588
4.23804
4.09008
3.94699
3.83431
3.74003
3.63499
3.51525
3.39903
3.28531
3.1824
3.0984
3.01587
2.9287
2.84536
2.76691
2.69702
2.62243
2.54209
2.47254
2.40883
2.35057
2.30168
2.25556
2.20508
2.14935
2.10022
2.06088
2.01774
1.96788
1.9124
1.85899
1.81202
1.77419
1.7459
1.7186
1.68701
1.65519
1.61949
1.57499
1.52973
1.49228
1.47042
1.45547
1.43563
1.40807
1.38193
1.35833
1.33473
1.30876
1.28405
1.25535
1.23116
1.21032
1.21598
1.27597
1.42107
1.67725
1.85847
1.99012
2.05832
2.04631
2.04906
2.05932
2.05591
2.04083
2.01636
1.98327
1.94898
1.91395
1.88766
1.87242
1.86345
1.854
1.82869
1.40001
1.40045
1.46026
2.27125
3.5983
3.95023
4.76231
5.85496
6.43688
6.49243
6.31535
6.11545
5.97625
5.81918
5.61661
5.41864
5.25654
5.10624
4.95341
4.79118
4.63725
4.49011
4.34378
4.19608
4.03898
3.88535
3.75168
3.65369
3.56687
3.46397
3.34688
3.21454
3.09994
3.02455
2.95718
2.87897
2.78594
2.69369
2.63737
2.58897
2.52036
2.44206
2.37525
2.32102
2.26534
2.20866
2.15496
2.10378
2.05397
2.00117
1.94997
1.90302
1.85826
1.81794
1.78142
1.74516
1.70824
1.67042
1.63121
1.59638
1.56638
1.53205
1.5038
1.48338
1.46255
1.43892
1.41037
1.38254
1.36131
1.34021
1.31654
1.29076
1.26105
1.22886
1.20566
1.19843
1.19308
1.20107
1.26221
1.40286
1.58655
1.76887
1.88943
1.97732
2.02707
2.03933
2.03729
2.01868
1.9786
1.92873
1.88946
1.87606
1.87166
1.86574
1.85484
1.83439
1.40001
1.40001
1.40119
1.50442
2.34455
4.40977
6.5449
6.77872
6.75237
6.55152
6.32202
6.13794
6.00491
5.84593
5.63604
5.42395
5.25657
5.10057
4.93798
4.77632
4.6129
4.448
4.29221
4.16101
4.04942
3.92249
3.78501
3.65561
3.52864
3.40866
3.30619
3.21988
3.12329
3.02084
2.92076
2.84277
2.7851
2.72416
2.6459
2.56131
2.48791
2.42508
2.36638
2.3145
2.27651
2.23789
2.18628
2.12743
2.06376
2.00176
1.94821
1.91203
1.88131
1.84653