/*--------------------------------*- C++ -*----------------------------------*\
  =========                 |
  \\      /  F ield         | OpenFOAM: The Open Source CFD Toolbox
   \\    /   O peration     | Website:  https://openfoam.org
    \\  /    A nd           | Version:  7
     \\/     M anipulation  |
\*---------------------------------------------------------------------------*/
FoamFile
{
    version     2.0;
    format      ascii;
    class       volVectorField;
    location    "2.7";
    object      U;
}
// * * * * * * * * * * * * * * * * * * * * * * * * * * * * * * * * * * * * * //

dimensions      [0 1 -1 0 0 0 0];

internalField   nonuniform List<vector> 
4032
(
(3 -5.64018e-18 0)
(3 -2.38465e-17 0)
(3 -1.66242e-16 0)
(3 8.02718e-17 0)
(3 1.90638e-16 0)
(3 1.28589e-16 0)
(3 -5.82199e-17 0)
(3 -2.08124e-16 0)
(3 -9.09961e-17 0)
(3 -1.23619e-17 0)
(3 -1.36174e-16 0)
(3 -6.07785e-16 0)
(1.10281 0.0159862 0)
(0.716644 0.0157996 0)
(0.666522 0.0213939 0)
(0.61094 0.023868 0)
(0.553317 0.0256929 0)
(0.493445 0.0274572 0)
(0.430839 0.0293796 0)
(0.364871 0.0316347 0)
(0.29482 0.0342943 0)
(0.218668 0.0379404 0)
(0.135872 0.0405535 0)
(0.0501912 0.0452473 0)
(3 3.99496e-17 0)
(3 -5.07295e-16 0)
(3 -4.61625e-16 0)
(3 1.03225e-16 0)
(3 1.18968e-16 0)
(3 1.4007e-16 0)
(3 1.41535e-17 0)
(3 -1.59354e-16 0)
(3 -2.56588e-16 0)
(3 -6.63679e-17 0)
(3 -1.73326e-16 0)
(3 -1.01416e-15 0)
(1.12582 0.0720589 0)
(0.711406 0.0614024 0)
(0.655569 0.067523 0)
(0.59876 0.0734939 0)
(0.540099 0.0780329 0)
(0.47997 0.0831786 0)
(0.417666 0.0891892 0)
(0.352605 0.0965895 0)
(0.284049 0.105188 0)
(0.210309 0.116909 0)
(0.129954 0.12541 0)
(0.048099 0.138965 0)
(3 -1.66082e-16 0)
(3 -5.87806e-16 0)
(3 -3.55262e-16 0)
(3 -7.05688e-17 0)
(3 2.56954e-16 0)
(3 -2.50869e-17 0)
(3 -4.73939e-17 0)
(3 1.72011e-16 0)
(3 -1.60775e-17 0)
(3 -2.89594e-16 0)
(3 3.60353e-17 0)
(3 -2.93093e-16 0)
(1.19652 0.126033 0)
(0.722541 0.106882 0)
(0.661701 0.116002 0)
(0.603231 0.125286 0)
(0.542768 0.132422 0)
(0.481439 0.140448 0)
(0.418182 0.149722 0)
(0.352398 0.161311 0)
(0.283126 0.174564 0)
(0.209543 0.193338 0)
(0.12845 0.206965 0)
(0.0481119 0.228139 0)
(3 1.94581e-17 0)
(3 5.56317e-16 0)
(3 2.87725e-16 0)
(3 1.7406e-16 0)
(3 5.17561e-17 0)
(3 -2.29805e-16 0)
(3 -7.98613e-16 0)
(3 -9.5026e-16 0)
(3 -7.02887e-16 0)
(3 -3.29612e-16 0)
(3 -1.12652e-16 0)
(3 5.9841e-16 0)
(1.31045 0.177976 0)
(0.737141 0.154946 0)
(0.669272 0.165828 0)
(0.610877 0.177936 0)
(0.550109 0.187568 0)
(0.488711 0.198878 0)
(0.4247 0.212187 0)
(0.357399 0.229103 0)
(0.285805 0.247376 0)
(0.211384 0.27327 0)
(0.128432 0.292338 0)
(0.046782 0.31864 0)
(3 1.24874e-16 0)
(3 -1.79292e-16 0)
(3 -5.60684e-16 0)
(3 -4.77928e-16 0)
(3 -6.01684e-16 0)
(3 -8.24724e-16 0)
(3 -1.38097e-15 0)
(3 -1.64551e-15 0)
(3 -5.93703e-16 0)
(3 -1.09206e-16 0)
(3 3.16745e-17 0)
(3 5.96947e-18 0)
(1.48084 0.228858 0)
(0.757588 0.207526 0)
(0.677496 0.216744 0)
(0.621149 0.230074 0)
(0.563249 0.241656 0)
(0.505713 0.256236 0)
(0.445498 0.273965 0)
(0.381879 0.297057 0)
(0.311942 0.320692 0)
(0.238007 0.354024 0)
(0.14894 0.382385 0)
(0.0565645 0.416582 0)
(3 -7.47166e-17 0)
(3 -3.22515e-16 0)
(3 -5.31889e-16 0)
(3 -4.77727e-16 0)
(3 -3.6751e-16 0)
(3 -6.18437e-16 0)
(3 -4.45422e-16 0)
(3 -3.54866e-16 0)
(3 2.20037e-16 0)
(3 3.76445e-16 0)
(3 1.0172e-15 0)
(3 -9.9955e-16 0)
(1.72648 0.27603 0)
(0.78786 0.267856 0)
(0.683988 0.268898 0)
(0.626506 0.280621 0)
(0.569805 0.293692 0)
(0.515875 0.311407 0)
(0.460453 0.333657 0)
(0.402354 0.364544 0)
(0.333379 0.398521 0)
(0.255252 0.445844 0)
(0.161496 0.492797 0)
(0.0549716 0.535751 0)
(3 -1.02246e-16 0)
(3 3.94769e-17 0)
(3 -9.10655e-17 0)
(3 8.89736e-17 0)
(3 1.63336e-17 0)
(3 -3.65676e-17 0)
(3 2.9386e-16 0)
(3 3.95294e-16 0)
(3 3.31376e-16 0)
(3 6.40234e-16 0)
(3 1.73042e-15 0)
(3 3.8833e-16 0)
(2.06636 0.319386 0)
(0.831206 0.345272 0)
(0.696067 0.329729 0)
(0.643937 0.338673 0)
(0.590786 0.349685 0)
(0.540031 0.367475 0)
(0.487926 0.391946 0)
(0.436624 0.429817 0)
(0.376125 0.476912 0)
(0.31159 0.536767 0)
(0.225749 0.602571 0)
(0.0986689 0.675107 0)
(3 2.69362e-17 0)
(3 9.19464e-17 0)
(3 1.91214e-16 0)
(3 1.63176e-16 0)
(3 9.85307e-17 0)
(3 -4.093e-16 0)
(3 -4.21541e-16 0)
(3 4.5312e-16 0)
(3 6.5459e-16 0)
(3 5.74847e-16 0)
(3 5.03339e-16 0)
(3 -1.0555e-16 0)
(2.55968 0.302277 0)
(0.943277 0.430477 0)
(0.767349 0.368323 0)
(0.718254 0.380282 0)
(0.659982 0.397466 0)
(0.603967 0.420093 0)
(0.548678 0.448541 0)
(0.495798 0.490581 0)
(0.444363 0.545663 0)
(0.382413 0.630447 0)
(0.270077 0.760947 0)
(0.148967 0.934346 0)
(3 -7.20652e-17 0)
(3 1.78381e-16 0)
(3 4.56392e-16 0)
(3 1.8681e-16 0)
(3 9.83951e-17 0)
(3 2.28793e-16 0)
(3 4.10299e-16 0)
(3 6.00477e-16 0)
(3 6.30944e-16 0)
(3 3.41073e-16 0)
(3 -4.41229e-17 0)
(3 -1.32221e-16 0)
(3.03361 0.0786415 0)
(1.14457 0.443157 0)
(0.849001 0.405306 0)
(0.80507 0.429515 0)
(0.748485 0.45029 0)
(0.691937 0.474213 0)
(0.635153 0.504077 0)
(0.580657 0.547516 0)
(0.531989 0.615375 0)
(0.490249 0.737794 0)
(0.459772 0.920062 0)
(0.576255 1.20886 0)
(3 -1.74527e-16 0)
(3 -8.04246e-16 0)
(3 -5.6083e-16 0)
(3 -2.49444e-16 0)
(3 5.49059e-16 0)
(3 9.21491e-16 0)
(3 1.28468e-15 0)
(3 8.69838e-16 0)
(3 5.93112e-16 0)
(3 8.06544e-16 0)
(3 1.15291e-15 0)
(3 9.60191e-16 0)
(3.01805 0.00213865 0)
(1.32606 0.429666 0)
(0.864089 0.465842 0)
(0.811608 0.492218 0)
(0.766144 0.513975 0)
(0.726814 0.541126 0)
(0.691006 0.574322 0)
(0.653718 0.617586 0)
(0.628911 0.688943 0)
(0.621661 0.812676 0)
(0.681829 0.96004 0)
(0.965737 1.13437 0)
(3 -1.35885e-16 0)
(3 -1.64272e-16 0)
(3 -1.8547e-16 0)
(3 -3.83214e-16 0)
(3 -3.63127e-16 0)
(3 -6.0937e-16 0)
(3 -6.11897e-16 0)
(3 -4.5371e-16 0)
(3 1.06898e-16 0)
(3 6.49419e-16 0)
(3 9.45914e-16 0)
(3 5.41022e-16 0)
(3.00024 -6.016e-06 0)
(1.70419 0.470581 0)
(0.874824 0.515569 0)
(0.815997 0.533107 0)
(0.788573 0.555165 0)
(0.766301 0.580481 0)
(0.74918 0.61566 0)
(0.732477 0.660138 0)
(0.733391 0.730052 0)
(0.756002 0.838372 0)
(0.873421 0.96072 0)
(1.17922 1.06871 0)
(3 -1.03276e-16 0)
(3 6.96775e-16 0)
(3 4.96354e-16 0)
(3 2.91545e-16 0)
(3 -4.28077e-16 0)
(3 -7.48589e-16 0)
(3 -7.88273e-16 0)
(3 -2.75897e-16 0)
(3 1.02265e-16 0)
(3 -5.5533e-16 0)
(3 -3.821e-16 0)
(3 4.58728e-17 0)
(3.00001 -4.72314e-06 0)
(2.40744 0.434038 0)
(0.989509 0.602717 0)
(0.865322 0.553605 0)
(0.846177 0.577497 0)
(0.824769 0.606855 0)
(0.815101 0.646347 0)
(0.812632 0.6936 0)
(0.829413 0.758857 0)
(0.877448 0.844438 0)
(1.01482 0.939505 0)
(1.27477 0.999862 0)
(3 9.95036e-17 0)
(3 1.30799e-17 0)
(3 -1.88236e-16 0)
(3 3.92547e-16 0)
(3 3.56002e-16 0)
(3 1.1135e-16 0)
(3 1.32054e-16 0)
(3 -4.39165e-16 0)
(3 -8.92919e-16 0)
(3 -1.02933e-15 0)
(3 -1.46313e-15 0)
(3 -9.55932e-16 0)
(3 -1.00567e-06 0)
(3.08577 0.0851475 0)
(1.27974 0.602662 0)
(0.961555 0.57887 0)
(0.934917 0.611886 0)
(0.905918 0.63879 0)
(0.890145 0.674108 0)
(0.891779 0.718435 0)
(0.914432 0.77598 0)
(0.979994 0.84667 0)
(1.11719 0.915699 0)
(1.33065 0.954389 0)
(3 9.63565e-18 0)
(3 -5.09066e-16 0)
(3 -1.01466e-15 0)
(3 -5.93261e-16 0)
(3 9.73926e-17 0)
(3 2.59285e-16 0)
(3 2.75884e-16 0)
(3 -6.07353e-16 0)
(3 -7.24976e-16 0)
(3 -7.50231e-16 0)
(3 -8.8474e-16 0)
(3 -1.03921e-15 0)
(3 -9.49456e-08 0)
(3.01734 0.000473374 0)
(1.57407 0.579696 0)
(0.988008 0.662295 0)
(0.950699 0.668122 0)
(0.936963 0.686481 0)
(0.93721 0.712686 0)
(0.952103 0.746403 0)
(0.98617 0.787457 0)
(1.05872 0.838019 0)
(1.18228 0.884479 0)
(1.35195 0.906464 0)
(3 3.94585e-17 0)
(3 9.04872e-17 0)
(3 -3.42948e-16 0)
(3 -1.57161e-16 0)
(3 2.49567e-16 0)
(3 7.15344e-16 0)
(3 7.68141e-16 0)
(3 5.66083e-16 0)
(3 2.53591e-16 0)
(3 -1.71977e-16 0)
(3 -7.73414e-16 0)
(3 -1.04297e-15 0)
(3 -2.77032e-09 0)
(3.00017 -4.7176e-06 0)
(2.36712 0.492125 0)
(1.09643 0.722791 0)
(0.994566 0.698592 0)
(0.982058 0.708693 0)
(0.985811 0.72624 0)
(1.00638 0.756513 0)
(1.04781 0.791855 0)
(1.12322 0.831992 0)
(1.23137 0.864838 0)
(1.3719 0.879378 0)
(3 -2.34072e-16 0)
(3 3.51479e-16 0)
(3 1.13704e-15 0)
(3 1.07357e-15 0)
(3 6.39397e-16 0)
(3 6.93428e-16 0)
(3 5.72457e-16 0)
(3 2.1686e-16 0)
(3 -6.99117e-17 0)
(3 -8.07714e-16 0)
(3 -1.29111e-15 0)
(3 -4.74509e-16 0)
(3 -6.1725e-12 0)
(3.00002 -7.2744e-06 0)
(3.07172 0.0819795 0)
(1.4335 0.717194 0)
(1.08752 0.718318 0)
(1.06067 0.721727 0)
(1.05196 0.742595 0)
(1.06597 0.765523 0)
(1.10312 0.789904 0)
(1.17253 0.818905 0)
(1.26442 0.840947 0)
(1.38193 0.850163 0)
(3 5.99339e-17 0)
(3 1.28147e-17 0)
(3 3.05589e-16 0)
(3 4.08514e-16 0)
(3 3.08316e-16 0)
(3 4.62685e-17 0)
(3 1.83915e-17 0)
(3 8.07122e-17 0)
(3 -6.12925e-17 0)
(3 -1.60946e-16 0)
(3 -2.23429e-17 0)
(3 -9.97639e-17 0)
(3 -7.69799e-15 0)
(3 -1.50561e-06 0)
(3.01255 0.000844987 0)
(1.96087 0.656681 0)
(1.14178 0.792301 0)
(1.10321 0.786349 0)
(1.11295 0.782652 0)
(1.12531 0.790929 0)
(1.15747 0.804111 0)
(1.21813 0.820672 0)
(1.29753 0.83405 0)
(1.3967 0.839006 0)
(3 -5.69872e-17 0)
(3 -3.07588e-16 0)
(3 -1.02513e-15 0)
(3 -9.18236e-16 0)
(3 -5.61192e-16 0)
(3 -3.97877e-16 0)
(3 -1.93653e-16 0)
(3 -2.51334e-17 0)
(3 -2.88791e-16 0)
(3 -4.39285e-17 0)
(3 -9.02865e-17 0)
(3 -5.88555e-16 0)
(3 -4.65997e-16 0)
(3 -1.20943e-07 0)
(3.00008 4.79702e-06 0)
(2.9546 0.22458 0)
(1.37661 0.781021 0)
(1.16262 0.786193 0)
(1.18916 0.792758 0)
(1.19679 0.802459 0)
(1.22384 0.809515 0)
(1.27161 0.817627 0)
(1.33662 0.824869 0)
(1.41865 0.827601 0)
(3 -3.64984e-17 0)
(3 6.206e-17 0)
(3 -1.54417e-16 0)
(3 -4.2745e-16 0)
(3 -4.17215e-16 0)
(3 -4.59079e-16 0)
(3 -6.80454e-16 0)
(3 -6.96076e-16 0)
(3 -2.29025e-16 0)
(3 2.63706e-16 0)
(3 -3.59253e-16 0)
(3 -6.71974e-16 0)
(3 -1.17864e-16 0)
(3 -6.00692e-10 0)
(3.00001 -2.81816e-06 0)
(3.03283 0.00532941 0)
(1.78197 0.728061 0)
(1.19348 0.83326 0)
(1.20275 0.830068 0)
(1.22913 0.836099 0)
(1.2672 0.842587 0)
(1.31367 0.846428 0)
(1.37034 0.845566 0)
(1.43773 0.841397 0)
(3 2.46021e-16 0)
(3 1.39841e-16 0)
(3 4.16491e-16 0)
(3 7.65127e-16 0)
(3 5.9699e-16 0)
(3 1.12769e-16 0)
(3 -9.02294e-16 0)
(3 -1.04315e-15 0)
(3 -4.65738e-16 0)
(3 7.87859e-17 0)
(3 -6.37746e-17 0)
(3 -1.44932e-16 0)
(3 3.63612e-16 0)
(3 -8.77371e-13 0)
(3 -5.86456e-07 0)
(3.00043 8.12469e-05 0)
(2.82019 0.353363 0)
(1.38517 0.850419 0)
(1.23668 0.818931 0)
(1.27457 0.828542 0)
(1.31182 0.839732 0)
(1.3591 0.844613 0)
(1.41107 0.843177 0)
(1.4682 0.837425 0)
(3 1.32468e-16 0)
(3 -2.45151e-16 0)
(3 -7.80976e-18 0)
(3 3.41169e-16 0)
(3 1.76582e-16 0)
(3 -2.9406e-16 0)
(3 -3.81734e-16 0)
(3 -6.08706e-16 0)
(3 -5.41947e-16 0)
(3 -1.3496e-16 0)
(3 1.80703e-16 0)
(3 8.18727e-16 0)
(3 1.15854e-15 0)
(3 6.80815e-16 0)
(3 -4.85629e-08 0)
(3 1.78519e-09 0)
(3.04656 0.0154664 0)
(1.82307 0.763591 0)
(1.27683 0.862743 0)
(1.29229 0.860504 0)
(1.33305 0.863434 0)
(1.37931 0.865652 0)
(1.43029 0.864922 0)
(1.48596 0.858352 0)
(3 7.20009e-17 0)
(3 4.45192e-16 0)
(3 5.05939e-16 0)
(3 -3.74915e-16 0)
(3 -7.31682e-16 0)
(3 -5.10066e-16 0)
(3 3.35766e-16 0)
(3 5.57634e-16 0)
(3 -1.65779e-16 0)
(3 -3.53374e-16 0)
(3 3.1122e-16 0)
(3 3.18318e-16 0)
(3 -4.93723e-17 0)
(3 4.25667e-16 0)
(3 -2.32855e-10 0)
(3 -1.53066e-08 0)
(3.00108 0.000386011 0)
(2.79619 0.370302 0)
(1.48428 0.897123 0)
(1.32159 0.856784 0)
(1.36702 0.858262 0)
(1.40657 0.86163 0)
(1.45438 0.862168 0)
(1.50901 0.856779 0)
(3 -7.13674e-17 0)
(3 3.77559e-16 0)
(3 8.73164e-17 0)
(3 -1.04959e-16 0)
(3 -3.95814e-16 0)
(3 -5.43364e-16 0)
(3 -8.05388e-17 0)
(3 3.31994e-16 0)
(3 1.45666e-16 0)
(3 -2.70614e-16 0)
(3 8.28487e-16 0)
(3 7.74759e-16 0)
(3 5.45648e-16 0)
(3 4.20436e-16 0)
(3 -6.14672e-13 0)
(3 -2.55104e-09 0)
(3 7.10424e-07 0)
(3.03549 0.0197633 0)
(2.01216 0.767359 0)
(1.38118 0.896393 0)
(1.38968 0.889704 0)
(1.42579 0.885392 0)
(1.46689 0.880559 0)
(1.51558 0.872791 0)
(3 1.36342e-18 0)
(3 -6.29959e-16 0)
(3 -5.05998e-16 0)
(3 -2.25122e-16 0)
(3 -2.86525e-16 0)
(3 -2.81543e-16 0)
(3 5.07157e-16 0)
(3 9.00023e-16 0)
(3 1.05635e-15 0)
(3 1.12351e-15 0)
(3 6.38e-16 0)
(3 7.97339e-16 0)
(3 9.15062e-16 0)
(3 4.29214e-16 0)
(3 -6.62448e-17 0)
(3 -2.13997e-10 0)
(3 -1.24477e-10 0)
(3.00077 0.000617512 0)
(2.88305 0.276376 0)
(1.67852 0.902941 0)
(1.41809 0.899295 0)
(1.46171 0.892229 0)
(1.49198 0.883885 0)
(1.53224 0.873731 0)
(3 -1.60859e-17 0)
(3 1.58403e-16 0)
(3 -1.22409e-16 0)
(3 -6.09295e-16 0)
(3 -4.57487e-16 0)
(3 4.42724e-16 0)
(3 8.97109e-16 0)
(3 9.48184e-16 0)
(3 6.8066e-16 0)
(3 3.51598e-16 0)
(3 8.95753e-17 0)
(3 -6.86895e-17 0)
(3 -1.70407e-16 0)
(3 1.63725e-16 0)
(3 2.25986e-16 0)
(3 -2.85385e-12 0)
(3 -4.01043e-11 0)
(3 1.4989e-06 0)
(3.01407 0.0154205 0)
(2.38535 0.673376 0)
(1.51652 0.940107 0)
(1.48697 0.92722 0)
(1.51625 0.907966 0)
(1.54624 0.894885 0)
(3 1.83828e-17 0)
(3 -1.18542e-16 0)
(3 -5.92349e-16 0)
(3 -3.9602e-16 0)
(3 -1.27357e-16 0)
(3 -4.39186e-16 0)
(3 -6.97209e-16 0)
(3 -5.41529e-16 0)
(3 -3.35868e-16 0)
(3 -1.57749e-16 0)
(3 -6.36459e-17 0)
(3 2.64022e-17 0)
(3 -3.48005e-16 0)
(3 -3.4218e-16 0)
(3 -7.70584e-17 0)
(3 -7.28941e-15 0)
(3 -4.32457e-12 0)
(3 3.64846e-10 0)
(3.00012 0.000397339 0)
(2.99956 0.124057 0)
(1.95551 0.837598 0)
(1.53511 0.935234 0)
(1.55729 0.921846 0)
(1.58208 0.904748 0)
(3 -2.72377e-17 0)
(3 -1.96196e-16 0)
(3 -3.79861e-16 0)
(3 -2.9987e-16 0)
(3 -4.44076e-16 0)
(3 -1.25907e-15 0)
(3 -2.2073e-15 0)
(3 -1.98724e-15 0)
(3 -1.0284e-15 0)
(3 -4.36123e-16 0)
(3 -3.98461e-16 0)
(3 -9.76257e-16 0)
(3 -1.20885e-15 0)
(3 -1.28576e-15 0)
(3 -8.85063e-16 0)
(3 -2.41965e-17 0)
(3 -2.08485e-13 0)
(3 -1.59141e-13 0)
(3 7.40755e-07 0)
(3.00299 0.00659877 0)
(2.73511 0.40093 0)
(1.76713 0.925497 0)
(1.57388 0.948353 0)
(1.60605 0.933383 0)
(3 -5.93926e-17 0)
(3 -2.51764e-17 0)
(3 2.29235e-17 0)
(3 -2.08084e-17 0)
(3 -4.10335e-16 0)
(3 -6.20656e-16 0)
(3 -4.30162e-16 0)
(3 -6.01969e-18 0)
(3 -4.10794e-17 0)
(3 -1.1867e-16 0)
(3 -4.31096e-16 0)
(3 -5.7308e-16 0)
(3 4.68713e-17 0)
(3 3.74128e-16 0)
(3 2.7444e-16 0)
(3 4.3652e-16 0)
(3 -2.01748e-15 0)
(3 -4.92879e-14 0)
(3 2.95701e-10 0)
(3 6.68924e-05 0)
(3.00405 0.0351588 0)
(2.38713 0.665285 0)
(1.67458 0.967832 0)
(1.62133 0.955255 0)
(3 -1.53687e-16 0)
(3 -2.45127e-16 0)
(3 1.95683e-16 0)
(3 6.95377e-16 0)
(3 8.16128e-16 0)
(3 1.19754e-15 0)
(3 1.98947e-15 0)
(3 1.63356e-15 0)
(3 1.19773e-15 0)
(3 3.5772e-16 0)
(3 -4.23512e-17 0)
(3 2.54887e-16 0)
(3 9.54918e-16 0)
(3 1.12595e-15 0)
(3 1.02807e-15 0)
(3 9.28954e-16 0)
(3 5.82605e-16 0)
(3 -1.0959e-14 0)
(3 2.93759e-14 0)
(3 6.44747e-08 0)
(3.00003 0.00121704 0)
(2.96019 0.134724 0)
(2.11147 0.808857 0)
(1.68147 0.9609 0)
(3 9.72715e-17 0)
(3 1.30932e-16 0)
(3 3.827e-16 0)
(3 8.92464e-16 0)
(3 1.50235e-15 0)
(3 1.7662e-15 0)
(3 1.52787e-15 0)
(3 3.45051e-16 0)
(3 2.84938e-16 0)
(3 4.81406e-16 0)
(3 3.17303e-16 0)
(3 -3.08878e-17 0)
(3 6.52272e-16 0)
(3 1.27603e-15 0)
(3 1.19139e-15 0)
(3 1.23955e-15 0)
(3 2.67597e-16 0)
(3 -1.71683e-15 0)
(3 -4.34354e-15 0)
(3 2.86516e-11 0)
(3 3.75455e-06 0)
(3.0002 0.0077741 0)
(2.80133 0.322021 0)
(1.95128 0.884874 0)
(3 1.28038e-16 0)
(3 3.99626e-16 0)
(3 4.8306e-16 0)
(3 3.08467e-16 0)
(3 1.89825e-16 0)
(3 3.42906e-16 0)
(3 3.70123e-16 0)
(3 2.74399e-16 0)
(3 -1.34254e-17 0)
(3 -1.18676e-16 0)
(3 2.3197e-16 0)
(3 5.3553e-16 0)
(3 1.00548e-15 0)
(3 1.14077e-15 0)
(3 7.2161e-16 0)
(3 1.55884e-16 0)
(3 2.41176e-16 0)
(3 9.24639e-16 0)
(3 -1.27055e-15 0)
(3 8.68914e-16 0)
(3 2.86678e-09 0)
(2.99998 7.64305e-05 0)
(2.99701 0.0266346 0)
(2.57549 0.511674 0)
(3 -3.43595e-16 0)
(3 1.90389e-16 0)
(3 3.36056e-16 0)
(3 1.70163e-16 0)
(3 -6.82139e-17 0)
(3 3.16713e-17 0)
(3 8.69449e-17 0)
(3 -9.82123e-17 0)
(3 -5.0988e-17 0)
(3 -2.20566e-16 0)
(3 -3.99629e-17 0)
(3 3.48879e-16 0)
(3 7.26451e-16 0)
(3 2.38139e-17 0)
(3 6.78242e-17 0)
(3 1.73193e-16 0)
(3 1.44799e-16 0)
(3 9.23846e-16 0)
(3 7.99736e-16 0)
(3 -1.26543e-15 0)
(3 6.90358e-13 0)
(3 9.32113e-08 0)
(2.99988 0.000689822 0)
(2.97832 0.0659774 0)
(3 -1.43612e-16 0)
(3 -4.05962e-16 0)
(3 -5.67862e-16 0)
(3 8.43404e-17 0)
(3 1.09013e-16 0)
(3 -2.02558e-16 0)
(3 -4.38778e-16 0)
(3 -2.75254e-16 0)
(3 6.82258e-17 0)
(3 1.89075e-16 0)
(3 4.0817e-17 0)
(3 -2.28066e-16 0)
(3 -2.48932e-16 0)
(3 2.64811e-16 0)
(3 7.21451e-16 0)
(3 9.66018e-16 0)
(3 5.05175e-16 0)
(3 6.91208e-16 0)
(3 8.74575e-16 0)
(3 6.69508e-17 0)
(3 -5.33831e-16 0)
(3 5.21642e-11 0)
(3 1.63465e-06 0)
(2.99958 0.00294422 0)
(3 -1.54757e-16 0)
(3 -2.34214e-16 0)
(3 -4.11036e-16 0)
(3 -2.23039e-16 0)
(3 1.97892e-16 0)
(3 -1.2499e-16 0)
(3 -1.00882e-15 0)
(3 -8.30936e-16 0)
(3 -1.09043e-15 0)
(3 -7.66559e-16 0)
(3 5.82305e-17 0)
(3 2.49661e-16 0)
(3 -2.48102e-16 0)
(3 -2.28733e-16 0)
(3 -1.17359e-17 0)
(3 1.5537e-16 0)
(3 5.64865e-16 0)
(3 1.23101e-15 0)
(3 1.45326e-15 0)
(3 1.32237e-15 0)
(3 5.00503e-17 0)
(3 4.7567e-15 0)
(3 1.55467e-09 0)
(3 1.41263e-05 0)
(3 7.17163e-17 0)
(3 1.53856e-16 0)
(3 5.71553e-17 0)
(3 -3.92666e-16 0)
(3 -4.79655e-16 0)
(3 -1.60031e-16 0)
(3 -3.36147e-17 0)
(3 -3.82469e-16 0)
(3 -6.29838e-16 0)
(3 -9.20231e-16 0)
(3 -1.15758e-15 0)
(3 -1.19467e-15 0)
(3 -1.19068e-15 0)
(3 -1.42043e-15 0)
(3 -1.18911e-15 0)
(3 -4.27668e-16 0)
(3 2.34799e-16 0)
(3 4.03322e-16 0)
(3 8.24818e-16 0)
(3 1.01282e-15 0)
(3 5.49275e-16 0)
(3 4.39783e-17 0)
(3 2.36156e-13 0)
(3 1.79807e-08 0)
(3 1.05691e-16 0)
(3 1.2196e-16 0)
(3 3.60638e-17 0)
(3 -7.83866e-16 0)
(3 -1.22675e-15 0)
(3 -3.06129e-16 0)
(3 2.98265e-16 0)
(3 6.12155e-16 0)
(3 3.67727e-16 0)
(3 -1.38599e-16 0)
(3 -6.60011e-16 0)
(3 -1.32659e-15 0)
(3 -1.08708e-15 0)
(3 -1.23497e-15 0)
(3 -9.44763e-16 0)
(3 -6.43176e-16 0)
(3 -1.2681e-16 0)
(3 1.22167e-16 0)
(3 5.86371e-16 0)
(3 1.40475e-15 0)
(3 1.00756e-15 0)
(3 7.78631e-16 0)
(3 1.36942e-15 0)
(3 5.53133e-12 0)
(3 8.71128e-17 0)
(3 3.66877e-16 0)
(3 3.71862e-16 0)
(3 -3.35563e-16 0)
(3 6.02723e-17 0)
(3 1.3925e-16 0)
(3 -1.1581e-17 0)
(3 2.30036e-17 0)
(3 4.29584e-16 0)
(3 9.76087e-16 0)
(3 9.94555e-16 0)
(3 1.09802e-15 0)
(3 1.41755e-16 0)
(3 -2.78211e-17 0)
(3 -6.90976e-16 0)
(3 -7.8848e-16 0)
(3 -6.91323e-17 0)
(3 -2.68767e-17 0)
(3 3.46279e-16 0)
(3 -3.06069e-16 0)
(3 -8.66004e-16 0)
(3 -2.06028e-16 0)
(3 -3.78728e-16 0)
(3 -1.16843e-15 0)
(3 -1.84984e-18 0)
(3 5.13215e-17 0)
(3 4.40502e-17 0)
(3 1.42979e-17 0)
(3 1.31198e-17 0)
(3 -3.89997e-16 0)
(3 -2.90181e-16 0)
(3 -3.4817e-16 0)
(3 5.28168e-17 0)
(3 4.99983e-16 0)
(3 1.20347e-15 0)
(3 1.27132e-15 0)
(3 1.01161e-15 0)
(3 1.06308e-15 0)
(3 4.13186e-16 0)
(3 3.91529e-16 0)
(3 2.03716e-16 0)
(3 -1.38031e-16 0)
(3 6.76684e-17 0)
(3 -4.45097e-16 0)
(3 -7.47532e-16 0)
(3 -7.17531e-17 0)
(3 -3.66144e-16 0)
(3 -1.27612e-15 0)
(3 -6.1944e-17 0)
(3 -5.88225e-17 0)
(3 3.4689e-17 0)
(3 4.84182e-16 0)
(3 7.84472e-16 0)
(3 5.70304e-16 0)
(3 -5.03582e-16 0)
(3 -1.34319e-15 0)
(3 -4.3921e-16 0)
(3 -1.38028e-17 0)
(3 6.63519e-16 0)
(3 1.47648e-15 0)
(3 2.38143e-15 0)
(3 1.53995e-15 0)
(3 1.05883e-15 0)
(3 1.53335e-16 0)
(3 6.8253e-17 0)
(3 -1.47149e-18 0)
(3 5.20862e-17 0)
(3 7.58171e-16 0)
(3 1.25183e-15 0)
(3 9.8859e-16 0)
(3 1.06382e-16 0)
(3 -1.02279e-16 0)
(3 4.46087e-17 0)
(3 3.26271e-16 0)
(3 3.11489e-16 0)
(3 6.8993e-16 0)
(3 8.94022e-16 0)
(3 6.5705e-16 0)
(3 -4.24477e-16 0)
(3 -7.70813e-16 0)
(3 -2.79055e-16 0)
(3 4.54625e-18 0)
(3 2.5495e-16 0)
(3 9.61028e-16 0)
(3 1.49592e-15 0)
(3 9.87687e-16 0)
(3 3.85382e-16 0)
(3 -2.38021e-16 0)
(3 -2.34091e-16 0)
(3 -1.89734e-16 0)
(3 1.98324e-16 0)
(3 5.48928e-16 0)
(3 8.18748e-16 0)
(3 5.06099e-17 0)
(3 2.43054e-16 0)
(3 2.91707e-16 0)
(1.52598 1.28025 0)
(1.95041 1.41273 0)
(2.26206 1.34493 0)
(2.54008 0.752745 0)
(2.54319 0.242552 0)
(2.65239 -0.0124512 0)
(2.57773 -0.272392 0)
(2.50754 -0.296448 0)
(2.44397 -0.263292 0)
(2.43033 -0.33904 0)
(2.4701 -0.325777 0)
(2.49627 -0.229682 0)
(2.47484 -0.183805 0)
(2.44073 -0.130113 0)
(2.3847 -0.102651 0)
(2.33629 -0.0805169 0)
(2.33765 -0.0516943 0)
(2.38595 -0.0343766 0)
(2.42477 -0.03253 0)
(2.4296 -0.0305085 0)
(2.42047 -0.0186812 0)
(2.393 -0.00929188 0)
(2.38461 -0.00853975 0)
(2.37599 -0.00736608 0)
(2.38602 -0.00669218 0)
(2.40208 -0.00789174 0)
(2.40652 -0.00926968 0)
(2.40675 -0.00826487 0)
(2.40138 -0.00383878 0)
(2.39752 -0.00221754 0)
(2.39351 -0.00309563 0)
(2.40273 -0.0056867 0)
(2.40849 -0.00630119 0)
(2.41027 -0.00360492 0)
(2.37533 -0.0239235 0)
(1.37874 -0.0957454 0)
(0.92138 -0.0847536 0)
(0.976907 -0.0797713 0)
(1.06193 -0.0635745 0)
(1.14397 -0.0552798 0)
(1.21218 -0.0448961 0)
(1.26005 -0.0380298 0)
(1.29875 -0.0299269 0)
(1.33382 -0.0239067 0)
(1.37047 -0.0187768 0)
(1.41126 -0.0151359 0)
(1.44846 -0.0111466 0)
(1.47979 -0.00862667 0)
(1.50907 -0.00686163 0)
(1.53743 -0.00510717 0)
(1.56588 -0.00428117 0)
(1.59692 -0.00404432 0)
(1.63088 -0.00371373 0)
(1.6622 -0.00449596 0)
(1.68735 -0.00472584 0)
(1.71206 -0.00360747 0)
(1.73398 -0.000931584 0)
(1.75112 0.00257084 0)
(1.76589 0.00531312 0)
(1.78485 0.00601588 0)
(1.80549 0.00594983 0)
(1.82878 0.00526953 0)
(1.85637 0.00339354 0)
(1.87967 0.00148111 0)
(1.90102 0.00101167 0)
(1.92077 0.00144457 0)
(1.93401 0.00339904 0)
(1.94189 0.00666144 0)
(1.95436 0.00879255 0)
(1.97333 0.00929307 0)
(1.99294 0.00961033 0)
(2.01606 0.00943473 0)
(2.04155 0.0072099 0)
(2.06047 0.00461091 0)
(2.07866 0.00348958 0)
(2.09088 0.00336386 0)
(2.09039 0.00553506 0)
(2.09431 0.00752081 0)
(2.1106 0.00796789 0)
(2.12968 0.00825838 0)
(2.1494 0.00853982 0)
(2.17055 0.00877681 0)
(2.19002 0.00886352 0)
(2.20819 0.00894647 0)
(2.22562 0.00899443 0)
(2.24042 0.00868379 0)
(2.24619 0.00760887 0)
(2.2409 0.00775598 0)
(2.24101 0.00847706 0)
(2.25206 0.00884409 0)
(2.26688 0.00898998 0)
(2.28274 0.00910793 0)
(2.29834 0.00929486 0)
(2.3143 0.00880568 0)
(2.32846 0.00855904 0)
(2.34944 0.00844858 0)
(1.77503 1.07049 0)
(2.29157 0.857485 0)
(2.51067 0.461856 0)
(2.66758 -0.000782708 0)
(2.73932 -0.187966 0)
(2.76679 -0.458669 0)
(2.71122 -0.668771 0)
(2.71216 -0.665831 0)
(2.68521 -0.555294 0)
(2.65978 -0.443519 0)
(2.6097 -0.375167 0)
(2.5711 -0.287954 0)
(2.53332 -0.225784 0)
(2.48892 -0.176187 0)
(2.45321 -0.118354 0)
(2.42411 -0.0690508 0)
(2.41489 -0.0152332 0)
(2.4381 -0.00172173 0)
(2.46451 -0.00667976 0)
(2.45805 -0.00564564 0)
(2.44853 -0.00973064 0)
(2.42706 -0.0213028 0)
(2.4135 -0.0194593 0)
(2.40999 -0.00309656 0)
(2.41276 0.0113419 0)
(2.41862 0.000625103 0)
(2.4283 -0.0183303 0)
(2.43736 -0.0245832 0)
(2.4394 -0.0205793 0)
(2.43857 -0.00712904 0)
(2.43269 0.0095736 0)
(2.42494 0.0162365 0)
(2.42229 0.0105459 0)
(2.41271 -0.0195221 0)
(2.24186 -0.23984 0)
(1.7841 -0.314039 0)
(1.1909 -0.134255 0)
(1.15452 -0.0540458 0)
(1.19693 -0.0263319 0)
(1.23914 -0.0208675 0)
(1.27963 -0.0156378 0)
(1.31148 -0.0275306 0)
(1.34663 -0.0309959 0)
(1.38023 -0.0264355 0)
(1.41229 -0.0124762 0)
(1.44307 -0.00972862 0)
(1.475 -0.012329 0)
(1.50717 -0.0136236 0)
(1.53704 -0.011171 0)
(1.56462 -0.00590756 0)
(1.59073 0.00115079 0)
(1.61596 0.00612984 0)
(1.64209 0.00587984 0)
(1.67164 -0.000788012 0)
(1.70041 -0.00726155 0)
(1.72461 -0.00895961 0)
(1.74797 -0.0079265 0)
(1.76804 -0.00162846 0)
(1.7826 0.0100067 0)
(1.79563 0.0202748 0)
(1.81384 0.0237604 0)
(1.83411 0.023598 0)
(1.85799 0.0181793 0)
(1.88353 0.00895498 0)
(1.90443 0.00129614 0)
(1.92413 -0.00405771 0)
(1.94211 -0.00536982 0)
(1.95707 0.00169599 0)
(1.96883 0.0154508 0)
(1.98084 0.0263856 0)
(1.99782 0.0298951 0)
(2.0162 0.0301379 0)
(2.03749 0.0251245 0)
(2.0582 0.0173036 0)
(2.07655 0.00901054 0)
(2.09191 0.000996514 0)
(2.10165 0.00102517 0)
(2.10795 0.0118894 0)
(2.11727 0.0225477 0)
(2.13318 0.0268841 0)
(2.15152 0.0282479 0)
(2.17056 0.0288543 0)
(2.18984 0.0282206 0)
(2.20818 0.027427 0)
(2.22561 0.0261613 0)
(2.23997 0.0231725 0)
(2.24798 0.0181568 0)
(2.24908 0.0131496 0)
(2.25079 0.0128216 0)
(2.26064 0.0146775 0)
(2.27473 0.0165092 0)
(2.29037 0.0195741 0)
(2.3055 0.0235015 0)
(2.3206 0.0257079 0)
(2.33387 0.0267506 0)
(2.35287 0.0266483 0)
(1.69129 1.01972 0)
(2.04551 0.892353 0)
(2.26308 0.728564 0)
(2.55423 0.324543 0)
(2.66551 0.105058 0)
(2.68323 -0.0195745 0)
(2.70782 -0.212453 0)
(2.74328 -0.225421 0)
(2.77228 -0.277449 0)
(2.74814 -0.400918 0)
(2.749 -0.438337 0)
(2.72732 -0.470392 0)
(2.6796 -0.448207 0)
(2.65727 -0.384508 0)
(2.64452 -0.304223 0)
(2.63635 -0.239253 0)
(2.61015 -0.157002 0)
(2.57318 -0.0846792 0)
(2.53833 -0.0744076 0)
(2.5067 -0.051261 0)
(2.49492 -0.024283 0)
(2.49877 -0.0107588 0)
(2.49937 -0.0141762 0)
(2.49197 -0.0147527 0)
(2.48035 0.00248346 0)
(2.47388 0.0108542 0)
(2.46987 0.00480822 0)
(2.48032 -0.0195758 0)
(2.49609 -0.0395197 0)
(2.49931 -0.03838 0)
(2.49944 -0.0280226 0)
(2.48163 -0.00729866 0)
(2.45412 -0.0312789 0)
(2.33981 -0.170915 0)
(2.01007 -0.464696 0)
(1.96293 -0.645501 0)
(1.61213 -0.351206 0)
(1.39412 -0.144822 0)
(1.36412 -0.0439434 0)
(1.39312 -0.036363 0)
(1.40886 -0.0576565 0)
(1.42958 -0.075836 0)
(1.45196 -0.0747892 0)
(1.4778 -0.0620877 0)
(1.50321 -0.0404073 0)
(1.52312 -0.0215031 0)
(1.54436 -0.0195449 0)
(1.56877 -0.022708 0)
(1.59653 -0.0242005 0)
(1.62177 -0.0219606 0)
(1.64469 -0.0170689 0)
(1.66404 -0.00845159 0)
(1.68412 -0.00234199 0)
(1.7073 -0.00171205 0)
(1.73226 -0.00479801 0)
(1.75554 -0.00788926 0)
(1.77746 -0.00851266 0)
(1.79753 -0.0068193 0)
(1.81338 -1.8634e-05 0)
(1.82624 0.0122552 0)
(1.84002 0.0243527 0)
(1.85595 0.0314327 0)
(1.87418 0.0336357 0)
(1.89308 0.0316309 0)
(1.91232 0.0236337 0)
(1.93395 0.0145584 0)
(1.9553 0.00923602 0)
(1.97525 0.00875679 0)
(1.99389 0.0151454 0)
(2.00768 0.0303293 0)
(2.01576 0.043509 0)
(2.02761 0.0450966 0)
(2.04488 0.0408442 0)
(2.06249 0.0335015 0)
(2.07873 0.0243469 0)
(2.09379 0.0163562 0)
(2.11027 0.0125321 0)
(2.12665 0.0156463 0)
(2.13927 0.0278537 0)
(2.14797 0.0418182 0)
(2.16113 0.0472059 0)
(2.17923 0.047252 0)
(2.19731 0.0462894 0)
(2.21492 0.0443703 0)
(2.23105 0.0415766 0)
(2.24333 0.0380929 0)
(2.2495 0.0350359 0)
(2.25073 0.0340094 0)
(2.25474 0.0345381 0)
(2.26616 0.0347809 0)
(2.28153 0.034166 0)
(2.29828 0.0348325 0)
(2.31502 0.0362421 0)
(2.33171 0.0372855 0)
(2.34515 0.0407745 0)
(2.36055 0.0440118 0)
(1.6015 0.98528 0)
(1.87712 0.901079 0)
(2.1706 0.64633 0)
(2.33719 0.489677 0)
(2.40213 0.425236 0)
(2.53901 0.222375 0)
(2.64304 -0.0427815 0)
(2.68486 -0.176369 0)
(2.70261 -0.221911 0)
(2.74782 -0.37234 0)
(2.7455 -0.453387 0)
(2.75008 -0.486913 0)
(2.75795 -0.484169 0)
(2.76034 -0.475552 0)
(2.75568 -0.449255 0)
(2.74599 -0.410695 0)
(2.7202 -0.361141 0)
(2.67313 -0.260126 0)
(2.62528 -0.193575 0)
(2.5941 -0.159943 0)
(2.58527 -0.115377 0)
(2.59126 -0.0945901 0)
(2.58417 -0.0793142 0)
(2.55791 -0.0482504 0)
(2.54496 -0.0116588 0)
(2.53258 0.0164444 0)
(2.52291 0.0149208 0)
(2.52202 0.00874015 0)
(2.54034 0.00276062 0)
(2.54759 -0.000687404 0)
(2.54698 -0.00351745 0)
(2.52042 -0.0330761 0)
(2.39103 -0.186751 0)
(2.08602 -0.519323 0)
(1.94553 -0.541547 0)
(1.96656 -0.658216 0)
(1.91856 -0.613249 0)
(1.72066 -0.390427 0)
(1.56033 -0.172486 0)
(1.51317 -0.0882101 0)
(1.50338 -0.0292439 0)
(1.52131 -0.0254077 0)
(1.54558 -0.0397091 0)
(1.57683 -0.045918 0)
(1.60034 -0.0402181 0)
(1.61461 -0.0219001 0)
(1.62638 -0.00373113 0)
(1.64285 0.00238913 0)
(1.66445 0.00194095 0)
(1.68724 -0.000380463 0)
(1.70815 -0.000981 0)
(1.72562 0.00189744 0)
(1.73959 0.00625027 0)
(1.75672 0.00764342 0)
(1.77711 0.00786175 0)
(1.79781 0.00789506 0)
(1.81814 0.00894371 0)
(1.83698 0.0111168 0)
(1.85282 0.0144361 0)
(1.86565 0.0198256 0)
(1.87752 0.0263476 0)
(1.88995 0.0311644 0)
(1.90429 0.0321301 0)
(1.92145 0.0301941 0)
(1.94037 0.028558 0)
(1.95953 0.0278746 0)
(1.97962 0.0275632 0)
(2.00028 0.0286911 0)
(2.02032 0.0303848 0)
(2.03819 0.0348244 0)
(2.04711 0.0436985 0)
(2.04971 0.0496916 0)
(2.05953 0.046634 0)
(2.0742 0.0399633 0)
(2.09054 0.0333081 0)
(2.10858 0.0307941 0)
(2.12725 0.0310756 0)
(2.14588 0.0324715 0)
(2.16353 0.0365987 0)
(2.17545 0.0478031 0)
(2.18085 0.0604249 0)
(2.19146 0.0639341 0)
(2.20793 0.0618664 0)
(2.22458 0.0581477 0)
(2.23956 0.0523997 0)
(2.25076 0.0454075 0)
(2.25818 0.040318 0)
(2.26525 0.0414185 0)
(2.2723 0.0484017 0)
(2.27827 0.0558842 0)
(2.29027 0.0571916 0)
(2.30666 0.0566295 0)
(2.32372 0.0555955 0)
(2.3411 0.0526083 0)
(2.35537 0.0519118 0)
(2.37226 0.0543544 0)
(1.56591 0.937448 0)
(1.78605 0.876249 0)
(2.00951 0.726426 0)
(2.17962 0.575619 0)
(2.28469 0.483326 0)
(2.41595 0.32555 0)
(2.49606 0.187192 0)
(2.54223 0.101351 0)
(2.61906 -0.0473702 0)
(2.65754 -0.167254 0)
(2.66986 -0.203392 0)
(2.65741 -0.229845 0)
(2.70383 -0.313014 0)
(2.7333 -0.370122 0)
(2.75524 -0.404265 0)
(2.76507 -0.436149 0)
(2.75721 -0.436817 0)
(2.7295 -0.40373 0)
(2.70348 -0.351602 0)
(2.67115 -0.299406 0)
(2.65047 -0.243166 0)
(2.64887 -0.201223 0)
(2.64646 -0.170517 0)
(2.63115 -0.130968 0)
(2.60238 -0.0854955 0)
(2.58224 -0.0355503 0)
(2.57328 -0.0095734 0)
(2.55677 -0.0125512 0)
(2.56467 -0.0152758 0)
(2.56807 -0.0063477 0)
(2.55107 -0.0258183 0)
(2.41385 -0.17529 0)
(2.16296 -0.442363 0)
(1.9589 -0.665741 0)
(1.93254 -0.633048 0)
(1.96162 -0.630063 0)
(1.98326 -0.631967 0)
(1.96742 -0.595268 0)
(1.86683 -0.455415 0)
(1.69316 -0.239779 0)
(1.6108 -0.0952731 0)
(1.57868 -0.040937 0)
(1.58987 -0.033724 0)
(1.63035 -0.0320738 0)
(1.65827 -0.0308807 0)
(1.67965 -0.0187731 0)
(1.69087 -0.00408455 0)
(1.69981 0.0010081 0)
(1.71563 0.000409892 0)
(1.73538 0.000334611 0)
(1.75628 0.00362521 0)
(1.77554 0.00754826 0)
(1.79133 0.0101424 0)
(1.80414 0.0105852 0)
(1.81899 0.0106005 0)
(1.83646 0.0113818 0)
(1.8548 0.012537 0)
(1.87283 0.0148047 0)
(1.88898 0.0194018 0)
(1.90293 0.0262654 0)
(1.91576 0.0339786 0)
(1.9273 0.0412956 0)
(1.93785 0.0460057 0)
(1.95287 0.0459064 0)
(1.97133 0.0441855 0)
(1.98999 0.04234 0)
(2.00937 0.0422471 0)
(2.02857 0.0435841 0)
(2.04794 0.0452892 0)
(2.06592 0.0476139 0)
(2.07642 0.0507898 0)
(2.07573 0.0547862 0)
(2.07863 0.0539663 0)
(2.0937 0.0499453 0)
(2.11084 0.0480555 0)
(2.12867 0.0467045 0)
(2.14924 0.0471623 0)
(2.16804 0.049956 0)
(2.18616 0.0535875 0)
(2.20156 0.0601466 0)
(2.20774 0.0711312 0)
(2.20823 0.0794072 0)
(2.2176 0.0778936 0)
(2.23211 0.0723609 0)
(2.24615 0.0651418 0)
(2.25842 0.05745 0)
(2.27062 0.0531938 0)
(2.28377 0.0537022 0)
(2.29578 0.0581621 0)
(2.30306 0.0673868 0)
(2.30684 0.0761907 0)
(2.3167 0.0782843 0)
(2.33174 0.0767065 0)
(2.34834 0.0719499 0)
(2.36176 0.0678232 0)
(2.38051 0.0667107 0)