/*--------------------------------*- C++ -*----------------------------------*\
  =========                 |
  \\      /  F ield         | OpenFOAM: The Open Source CFD Toolbox
   \\    /   O peration     | Website:  https://openfoam.org
    \\  /    A nd           | Version:  7
     \\/     M anipulation  |
\*---------------------------------------------------------------------------*/
FoamFile
{
    version     2.0;
    format      ascii;
    class       volScalarField;
    location    "0.6";
    object      p;
}
// * * * * * * * * * * * * * * * * * * * * * * * * * * * * * * * * * * * * * //

dimensions      [1 -1 -2 0 0 0 0];

internalField   nonuniform List<scalar> 
258048
(
1
1
1
1
1
1
1
1
1
1
1
1
1
1
1
1
1
1
1
1
1
1
1
1
1
1
1
1
1
1
1
1
1
1
1
1
1
1
1
1
1
1
1
1
1
1
1
1
1
1
1
1
1
1
1
1
1
1
1
1
1
1
1
1
1
1
1
1
1
1
1
1
1
1
1
1
1
1
1
1
1
1
1
1
1
1
1
1
1
1
1
1
1
1
1
1
1
1
1
1
1
1
1
1
1
1
1
1
1
1
1
1
1
1
1
1
1
1
1
6.17818
11.106
11.2208
11.2659
11.3441
11.4062
11.4374
11.4273
11.4121
11.4127
11.4634
11.528
11.5634
11.5461
11.4872
11.4196
11.4021
11.4586
11.5883
11.7362
11.8405
11.8923
11.8973
11.8667
11.8484
11.8565
11.9168
12.0277
12.1235
12.1624
12.1537
12.101
12.0206
11.9391
11.8711
11.8466
11.9039
12.0353
12.1744
12.2871
12.3578
12.3757
12.3546
12.3091
12.2602
12.2316
12.2412
12.2835
12.3468
12.4138
12.4621
12.474
12.4465
12.3911
12.3281
12.2809
12.2607
12.2607
12.2923
12.3557
12.4348
12.515
12.5826
12.6306
12.658
12.6643
12.6488
12.6083
12.5424
12.4585
12.3759
12.3042
12.2582
1
1
1
1
1
1
1
1
1
1
1
1
1
1
1
1
1
1
1
1
1
1
1
1
1
1
1
1
1
1
1
1
1
1
1
1
1
1
1
1
1
1
1
1
1
1
1
1
1
1
1
1
1
1
1
1
1
1
1
1
1
1
1
1
1
1
1
1
1
1
1
1
1
1
1
1
1
1
1
1
1
1
1
1
1
1
1
1
1
1
1
1
1
1
1
1
1
1
1
1
1
1
1
1
1
1
1
1
1
1
1
1
1
1
1
1
1
1
1
6.14949
11.0677
11.2289
11.2698
11.3504
11.4095
11.4389
11.4289
11.4122
11.4111
11.4617
11.5259
11.5613
11.5441
11.4851
11.4185
11.402
11.4594
11.5898
11.738
11.8423
11.8937
11.8978
11.8664
11.8475
11.8554
11.9159
12.0269
12.1227
12.1617
12.153
12.1002
12.0196
11.9378
11.8697
11.8454
11.9034
12.0349
12.1743
12.2874
12.3582
12.3762
12.3548
12.3091
12.2601
12.2314
12.2409
12.2832
12.3465
12.4133
12.4612
12.4727
12.4452
12.39
12.3275
12.2809
12.2612
12.2612
12.293
12.356
12.4346
12.5143
12.5816
12.6293
12.6567
12.6632
12.6478
12.6075
12.5418
12.4581
12.3756
12.304
12.258
1
1
1
1
1
1
1
1
1
1
1
1
1
1
1
1
1
1
1
1
1
1
1
1
1
1
1
1
1
1
1
1
1
1
1
1
1
1
1
1
1
1
1
1
1
1
1
1
1
1
1
1
1
1
1
1
1
1
1
1
1
1
1
1
1
1
1
1
1
1
1
1
1
1
1
1
1
1
1
1
1
1
1
1
1
1
1
1
1
1
1
1
1
1
1
1
1
1
1
1
1
1
1
1
1
1
1
1
1
1
1
1
1
1
1
1
1
1
1
6.11131
11.0438
11.2254
11.2712
11.3509
11.4094
11.4378
11.4291
11.4111
11.4087
11.4593
11.5234
11.5587
11.5409
11.4811
11.4152
11.401
11.4597
11.5914
11.7403
11.8449
11.896
11.8987
11.8661
11.8459
11.8535
11.9142
12.0252
12.1213
12.1604
12.1516
12.0989
12.0181
11.9358
11.8672
11.8432
11.9019
12.0339
12.174
12.2877
12.3587
12.3768
12.3549
12.3088
12.2594
12.2305
12.2399
12.2821
12.3453
12.4119
12.4594
12.4706
12.4431
12.3881
12.3265
12.2808
12.2619
12.2618
12.2939
12.3563
12.4342
12.5131
12.5796
12.627
12.6543
12.6609
12.6458
12.606
12.5408
12.4574
12.3749
12.3034
12.2574
1
1
1
1
1
1
1
1
1
1
1
1
1
1
1
1
1
1
1
1
1
1
1
1
1
1
1
1
1
1
1
1
1
1
1
1
1
1
1
1
1
1
1
1
1
1
1
1
1
1
1
1
1
1
1
1
1
1
1
1
1
1
1
1
1
1
1
1
1
1
1
1
1
1
1
1
1
1
1
1
1
1
1
1
1
1
1
1
1
1
1
1
1
1
1
1
1
1
1
1
1
1
1
1
1
1
1
1
1
1
1
1
1
1
1
1
1
1
1
6.03847
11.0224
11.2235
11.2725
11.3496
11.4094
11.4377
11.429
11.4086
11.4043
11.4545
11.5187
11.554
11.5355
11.4751
11.4111
11.4004
11.461
11.5947
11.7445
11.8491
11.8991
11.8994
11.865
11.8432
11.8507
11.9116
12.0227
12.119
12.1581
12.1494
12.0967
12.0156
11.9326
11.8635
11.8399
11.8999
12.0327
12.1739
12.2883
12.3595
12.3778
12.3551
12.3082
12.2584
12.2291
12.2381
12.2803
12.3434
12.4097
12.4567
12.4673
12.44
12.3855
12.3251
12.2806
12.2629
12.2628
12.2953
12.3567
12.4335
12.5112
12.5767
12.6235
12.6505
12.6573
12.6427
12.6035
12.539
12.4561
12.3738
12.3026
12.2569
1
1
1
1
1
1
1
1
1
1
1
1
1
1
1
1
1
1
1
1
1
1
1
1
1
1
1
1
1
1
1
1
1
1
1
1
1
1
1
1
1
1
1
1
1
1
1
1
1
1
1
1
1
1
1
1
1
1
1
1
1
1
1
1
1
1
1
1
1
1
1
1
1
1
1
1
1
1
1
1
1
1
1
1
1
1
1
1
1
1
1
1
1
1
1
1
1
1
1
1
1
1
1
1
1
1
1
1
1
1
1
1
1
1
1
1
1
1
1
5.94006
11.0051
11.222
11.2735
11.3484
11.4096
11.4368
11.4259
11.403
11.3982
11.4481
11.5131
11.5484
11.5288
11.4674
11.4062
11.4003
11.4633
11.5992
11.7498
11.8541
11.9026
11.8995
11.8633
11.8396
11.8471
11.9084
12.0193
12.1159
12.155
12.1463
12.0937
12.0122
11.9283
11.8585
11.8355
11.8972
12.0314
12.1739
12.2891
12.3604
12.3788
12.3551
12.3073
12.2567
12.2268
12.2354
12.2773
12.3401
12.4062
12.4527
12.4628
12.4358
12.3822
12.3235
12.2804
12.2641
12.2639
12.2967
12.3571
12.4327
12.5088
12.573
12.619
12.6455
12.6525
12.6385
12.6001
12.5364
12.4541
12.3722
12.3016
12.2568
1
1
1
1
1
1
1
1
1
1
1
1
1
1
1
1
1
1
1
1
1
1
1
1
1
1
1
1
1
1
1
1
1
1
1
1
1
1
1
1
1
1
1
1
1
1
1
1
1
1
1
1
1
1
1
1
1
1
1
1
1
1
1
1
1
1
1
1
1
1
1
1
1
1
1
1
1
1
1
1
1
1
1
1
1
1
1
1
1
1
1
1
1
1
1
1
1
1
1
1
1
1
1
1
1
1
1
1
1
1
1
1
1
1
1
1
1
1
1
5.82072
10.9805
11.2199
11.2733
11.348
11.4106
11.4359
11.4204
11.3941
11.39
11.4398
11.5057
11.541
11.5197
11.4576
11.4008
11.4013
11.4673
11.6056
11.7566
11.86
11.9057
11.8985
11.8605
11.8353
11.8431
11.9045
12.0151
12.1118
12.1509
12.1424
12.0898
12.008
11.923
11.8523
11.8303
11.8943
12.0305
12.1744
12.2903
12.3618
12.38
12.3551
12.3061
12.2544
12.2236
12.2317
12.2732
12.3356
12.4013
12.4473
12.4571
12.4306
12.3783
12.3217
12.2806
12.2657
12.2654
12.2981
12.3573
12.4315
12.5059
12.5686
12.6136
12.6396
12.6467
12.6334
12.5959
12.533
12.4515
12.3701
12.3003
12.2572
1
1
1
1
1
1
1
1
1
1
1
1
1
1
1
1
1
1
1
1
1
1
1
1
1
1
1
1
1
1
1
1
1
1
1
1
1
1
1
1
1
1
1
1
1
1
1
1
1
1
1
1
1
1
1
1
1
1
1
1
1
1
1
1
1
1
1
1
1
1
1
1
1
1
1
1
1
1
1
1
1
1
1
1
1
1
1
1
1
1
1
1
1
1
1
1
1
1
1
1
1
1
1
1
1
1
1
1
1
1
1
1
1
1
1
1
1
1
1
5.67921
10.9519
11.2195
11.2729
11.3479
11.4117
11.4329
11.4111
11.3811
11.3795
11.4301
11.4968
11.5317
11.5081
11.4461
11.3964
11.4045
11.4734
11.6136
11.7644
11.8656
11.9075
11.8959
11.8568
11.8306
11.8391
11.9003
12.0099
12.1066
12.1458
12.1377
12.0853
12.0028
11.9164
11.8448
11.8242
11.8913
12.0299
12.1753
12.2918
12.3632
12.3811
12.3548
12.3043
12.2515
12.2197
12.2269
12.2679
12.3298
12.3949
12.4404
12.4501
12.4245
12.3739
12.3201
12.2814
12.268
12.2675
12.2995
12.3572
12.4297
12.5023
12.5635
12.6073
12.6327
12.64
12.6274
12.5909
12.5289
12.4482
12.3677
12.2989
12.2581
1
1
1
1
1
1
1
1
1
1
1
1
1
1
1
1
1
1
1
1
1
1
1
1
1
1
1
1
1
1
1
1
1
1
1
1
1
1
1
1
1
1
1
1
1
1
1
1
1
1
1
1
1
1
1
1
1
1
1
1
1
1
1
1
1
1
1
1
1
1
1
1
1
1
1
1
1
1
1
1
1
1
1
1
1
1
1
1
1
1
1
1
1
1
1
1
1
1
1
1
1
1
1
1
1
1
1
1
1
1
1
1
1
1
1
1
1
1
1
5.516
10.9198
11.22
11.2719
11.3478
11.4123
11.4267
11.3967
11.365
11.368
11.4202
11.4862
11.5197
11.4933
11.4332
11.3946
11.4107
11.4819
11.623
11.7726
11.8701
11.9073
11.8919
11.8526
11.8259
11.8352
11.8955
12.0036
12.1002
12.1397
12.1322
12.0799
11.9968
11.9086
11.8361
11.8174
11.8884
12.0296
12.1768
12.2936
12.3646
12.3819
12.3542
12.3022
12.2481
12.215
12.2212
12.2614
12.3226
12.3869
12.4319
12.4417
12.4172
12.369
12.3183
12.2824
12.2706
12.27
12.3009
12.3567
12.4271
12.4978
12.5574
12.6
12.6248
12.6323
12.6208
12.5853
12.524
12.4441
12.3649
12.2973
12.2593
1
1
1
1
1
1
1
1
1
1
1
1
1
1
1
1
1
1
1
1
1
1
1
1
1
1
1
1
1
1
1
1
1
1
1
1
1
1
1
1
1
1
1
1
1
1
1
1
1
1
1
1
1
1
1
1
1
1
1
1
1
1
1
1
1
1
1
1
1
1
1
1
1
1
1
1
1
1
1
1
1
1
1
1
1
1
1
1
1
1
1
1
1
1
1
1
1
1
1
1
1
1
1
1
1
1
1
1
1
1
1
1
1
1
1
1
1
1
1
5.33099
10.885
11.2207
11.2701
11.3471
11.4105
11.4149
11.3768
11.3474
11.3562
11.4098
11.4733
11.5044
11.4759
11.4211
11.3974
11.4205
11.4931
11.6331
11.7798
11.8723
11.9042
11.8869
11.8486
11.822
11.8318
11.8901
11.9959
12.0924
12.1326
12.1258
12.0737
11.9898
11.8998
11.8268
11.8103
11.8856
12.0297
12.1788
12.2957
12.3658
12.3823
12.3531
12.2997
12.2442
12.2098
12.2146
12.2539
12.314
12.3774
12.4218
12.432
12.409
12.3637
12.3166
12.284
12.2736
12.2725
12.3018
12.3553
12.4234
12.4922
12.5502
12.5916
12.6159
12.6239
12.6134
12.579
12.5184
12.439
12.3615
12.2955
12.2606
1
1
1
1
1
1
1
1
1
1
1
1
1
1
1
1
1
1
1
1
1
1
1
1
1
1
1
1
1
1
1
1
1
1
1
1
1
1
1
1
1
1
1
1
1
1
1
1
1
1
1
1
1
1
1
1
1
1
1
1
1
1
1
1
1
1
1
1
1
1
1
1
1
1
1
1
1
1
1
1
1
1
1
1
1
1
1
1
1
1
1
1
1
1
1
1
1
1
1
1
1
1
1
1
1
1
1
1
1
1
1
1
1
1
1
1
1
1
1
5.12452
10.8468
11.2211
11.268
11.3445
11.4021
11.3955
11.3536
11.3308
11.3447
11.3981
11.4578
11.4856
11.4579
11.4127
11.4051
11.4341
11.5065
11.6425
11.7844
11.8717
11.8986
11.8815
11.8457
11.8193
11.8289
11.8838
11.9863
12.0828
12.1242
12.1184
12.0665
11.9817
11.89
11.8171
11.8038
11.8833
12.0297
12.1808
12.2978
12.3669
12.3821
12.3515
12.2967
12.2401
12.2042
12.2075
12.2454
12.3042
12.3664
12.4102
12.421
12.3999
12.3582
12.3152
12.2864
12.2771
12.2751
12.3021
12.3529
12.4186
12.4854
12.5419
12.5823
12.6064
12.6149
12.6055
12.5721
12.512
12.4333
12.3577
12.2936
12.262
1
1
1
1
1
1
1
1
1
1
1
1
1
1
1
1
1
1
1
1
1
1
1
1
1
1
1
1
1
1
1
1
1
1
1
1
1
1
1
1
1
1
1
1
1
1
1
1
1
1
1
1
1
1
1
1
1
1
1
1
1
1
1
1
1
1
1
1
1
1
1
1
1
1
1
1
1
1
1
1
1
1
1
1
1
1
1
1
1
1
1
1
1
1
1
1
1
1
1
1
1
1
1
1
1
1
1
1
1
1
1
1
1
1
1
1
1
1
1
4.89816
10.806
11.2195
11.2658
11.3372
11.3837
11.3683
11.3313
11.3176
11.3332
11.3836
11.4392
11.464
11.4418
11.4101
11.4174
11.4515
11.5205
11.6496
11.7859
11.868
11.8911
11.8769
11.8444
11.8177
11.8262
11.8763
11.9748
12.0713
12.1144
12.1098
12.0581
11.9725
11.8791
11.8076
11.7983
11.8817
12.0299
12.1826
12.2995
12.3674
12.3813
12.3492
12.2932
12.2357
12.1985
12.1999
12.236
12.2931
12.3538
12.397
12.4086
12.3899
12.3524
12.3142
12.2896
12.2812
12.2781
12.3021
12.3495
12.4122
12.477
12.5323
12.5721
12.5962
12.6054
12.5972
12.5648
12.5051
12.427
12.3536
12.2917
12.2634
1
1
1
1
1
1
1
1
1
1
1
1
1
1
1
1
1
1
1
1
1
1
1
1
1
1
1
1
1
1
1
1
1
1
1
1
1
1
1
1
1
1
1
1
1
1
1
1
1
1
1
1
1
1
1
1
1
1
1
1
1
1
1
1
1
1
1
1
1
1
1
1
1
1
1
1
1
1
1
1
1
1
1
1
1
1
1
1
1
1
1
1
1
1
1
1
1
1
1
1
1
1
1
1
1
1
1
1
1
1
1
1
1
1
1
1
1
1
1
4.65491
10.7644
11.2126
11.2596
11.3223
11.3556
11.3361
11.3133
11.3078
11.3209
11.3646
11.4175
11.442
11.4293
11.4164
11.4341
11.47
11.533
11.6536
11.7836
11.8614
11.8831
11.8742
11.8446
11.8167
11.8232
11.8674
11.9611
12.0577
12.103
12.0999
12.0485
11.9621
11.8675
11.7987
11.7942
11.8809
12.0303
12.1842
12.3005
12.367
12.3796
12.3461
12.2893
12.2312
12.1928
12.1921
12.226
12.2807
12.3396
12.3823
12.3948
12.3789
12.3464
12.3136
12.2937
12.2861
12.2815
12.3019
12.3453
12.4045
12.4669
12.5211
12.5606
12.5852
12.5954
12.5884
12.5568
12.4977
12.4203
12.3493
12.2896
12.2649
1
1
1
1
1
1
1
1
1
1
1
1
1
1
1
1
1
1
1
1
1
1
1
1
1
1
1
1
1
1
1
1
1
1
1
1
1
1
1
1
1
1
1
1
1
1
1
1
1
1
1
1
1
1
1
1
1
1
1
1
1
1
1
1
1
1
1
1
1
1
1
1
1
1
1
1
1
1
1
1
1
1
1
1
1
1
1
1
1
1
1
1
1
1
1
1
1
1
1
1
1
1
1
1
1
1
1
1
1
1
1
1
1
1
1
1
1
1
1
4.39933
10.7207
11.1972
11.2425
11.2992
11.3219
11.3052
11.2998
11.2988
11.3069
11.3407
11.3936
11.423
11.422
11.4299
11.4551
11.4877
11.5432
11.654
11.7772
11.853
11.8764
11.8733
11.8461
11.8157
11.8194
11.857
11.9453
12.0422
12.09
12.0886
12.0374
11.9501
11.8552
11.791
11.7917
11.8813
12.031
12.1853
12.3006
12.3656
12.3768
12.3421
12.2848
12.2266
12.1872
12.1841
12.2151
12.2672
12.3239
12.366
12.3795
12.367
12.3403
12.3136
12.2985
12.2915
12.2854
12.3017
12.3402
12.3953
12.4552
12.5082
12.5479
12.5732
12.5846
12.5788
12.5481
12.4895
12.4131
12.3448
12.2876
12.2665
1
1
1
1
1
1
1
1
1
1
1
1
1
1
1
1
1
1
1
1
1
1
1
1
1
1
1
1
1
1
1
1
1
1
1
1
1
1
1
1
1
1
1
1
1
1
1
1
1
1
1
1
1
1
1
1
1
1
1
1
1
1
1
1
1
1
1
1
1
1
1
1
1
1
1
1
1
1
1
1
1
1
1
1
1
1
1
1
1
1
1
1
1
1
1
1
1
1
1
1
1
1
1
1
1
1
1
1
1
1
1
1
1
1
1
1
1
1
1
4.13573
10.6645
11.1732
11.2134
11.2664
11.2872
11.2816
11.2883
11.2877
11.29
11.3133
11.3691
11.4092
11.4227
11.4476
11.4777
11.5039
11.5502
11.6505
11.7673
11.8438
11.872
11.8741
11.8481
11.8142
11.8143
11.845
11.9276
12.0246
12.0755
12.076
12.0248
11.9365
11.8425
11.7856
11.7915
11.883
12.0317
12.1856
12.2996
12.3628
12.3726
12.3373
12.2801
12.2222
12.1817
12.1758
12.2034
12.2523
12.3066
12.3481
12.3629
12.3542
12.334
12.3141
12.304
12.2975
12.2898
12.3013
12.3345
12.3851
12.442
12.4939
12.5339
12.5602
12.5728
12.5681
12.5383
12.4806
12.4057
12.3402
12.2858
12.2685
1
1
1
1
1
1
1
1
1
1
1
1
1
1
1
1
1
1
1
1
1
1
1
1
1
1
1
1
1
1
1
1
1
1
1
1
1
1
1
1
1
1
1
1
1
1
1
1
1
1
1
1
1
1
1
1
1
1
1
1
1
1
1
1
1
1
1
1
1
1
1
1
1
1
1
1
1
1
1
1
1
1
1
1
1
1
1
1
1
1
1
1
1
1
1
1
1
1
1
1
1
1
1
1
1
1
1
1
1
1
1
1
1
1
1
1
1
1
1
3.86278
10.5748
11.1465
11.1759
11.2312
11.2566
11.2681
11.2754
11.2726
11.2687
11.2861
11.3479
11.4006
11.4338
11.4699
11.4981
11.5176
11.5539
11.6427
11.7548
11.835
11.8699
11.8761
11.85
11.8118
11.8072
11.8311
11.9081
12.0053
12.0597
12.0623
12.0108
11.9213
11.83
11.7829
11.7937
11.8853
12.0319
12.1847
12.297
12.3583
12.3671
12.3318
12.2753
12.2179
12.1762
12.167
12.1906
12.236
12.2877
12.3285
12.3449
12.3407
12.3277
12.3151
12.3098
12.3039
12.2946
12.3009
12.3283
12.3739
12.4277
12.4785
12.5187
12.5461
12.5597
12.5559
12.5271
12.4706
12.3977
12.3356
12.2841
12.2713
1
1
1
1
1
1
1
1
1
1
1
1
1
1
1
1
1
1
1
1
1
1
1
1
1
1
1
1
1
1
1
1
1
1
1
1
1
1
1
1
1
1
1
1
1
1
1
1
1
1
1
1
1
1
1
1
1
1
1
1
1
1
1
1
1
1
1
1
1
1
1
1
1
1
1
1
1
1
1
1
1
1
1
1
1
1
1
1
1
1
1
1
1
1
1
1
1
1
1
1
1
1
1
1
1
1
1
1
1
1
1
1
1
1
1
1
1
1
1
3.56864
10.4212
11.1227
11.1431
11.2019
11.2321
11.2595
11.2608
11.2512
11.2437
11.2637
11.3337
11.3979
11.453
11.495
11.5162
11.528
11.5537
11.6319
11.7417
11.8276
11.8692
11.8782
11.8511
11.8082
11.7979
11.815
11.8868
11.9846
12.0428
12.0472
11.9953
11.9052
11.8194
11.7833
11.7978
11.888
12.0311
12.1821
12.2926
12.3519
12.3602
12.3259
12.2708
12.214
12.1705
12.1574
12.1765
12.2182
12.2672
12.3073
12.326
12.3267
12.3216
12.3164
12.3159
12.3104
12.2992
12.3001
12.3214
12.362
12.4127
12.4623
12.5029
12.5311
12.5453
12.542
12.514
12.4591
12.389
12.331
12.283
12.2751
1
1
1
1
1
1
1
1
1
1
1
1
1
1
1
1
1
1
1
1
1
1
1
1
1
1
1
1
1
1
1
1
1
1
1
1
1
1
1
1
1
1
1
1
1
1
1
1
1
1
1
1
1
1
1
1
1
1
1
1
1
1
1
1
1
1
1
1
1
1
1
1
1
1
1
1
1
1
1
1
1
1
1
1
1
1
1
1
1
1
1
1
1
1
1
1
1
1
1
1
1
1
1
1
1
1
1
1
1
1
1
1
1
1
1
1
1
1
1
3.24514
10.1939
11.1037
11.12
11.1836
11.2142
11.2464
11.2425
11.2263
11.2196
11.248
11.3273
11.405
11.4772
11.5177
11.5323
11.5331
11.5494
11.6199
11.7297
11.8217
11.869
11.8793
11.851
11.8032
11.7859
11.7968
11.8638
11.9627
12.0249
12.0306
11.9785
11.8892
11.8125
11.7864
11.8036
11.8909
12.029
12.1772
12.286
12.3435
12.3521
12.32
12.2667
12.2102
12.1645
12.1467
12.1606
12.1987
12.2452
12.2849
12.3062
12.3126
12.316
12.3185
12.3221
12.3167
12.3033
12.2988
12.3139
12.3494
12.3971
12.4457
12.4866
12.5152
12.5294
12.5262
12.4988
12.446
12.3796
12.3264
12.2825
12.2794
1
1
1
1
1
1
1
1
1
1
1
1
1
1
1
1
1
1
1
1
1
1
1
1
1
1
1
1
1
1
1
1
1
1
1
1
1
1
1
1
1
1
1
1
1
1
1
1
1
1
1
1
1
1
1
1
1
1
1
1
1
1
1
1
1
1
1
1
1
1
1
1
1
1
1
1
1
1
1
1
1
1
1
1
1
1
1
1
1
1
1
1
1
1
1
1
1
1
1
1
1
1
1
1
1
1
1
1
1
1
1
1
1
1
1
1
1
1
1
2.89423
9.90227
11.0933
11.1063
11.1658
11.1972
11.2264
11.2232
11.2037
11.2014
11.2404
11.329
11.4239
11.5042
11.5356
11.5424
11.5326
11.5424
11.6086
11.7196
11.8168
11.8683
11.8791
11.8488
11.7965
11.7714
11.7763
11.839
11.9397
12.0057
12.0121
11.9604
11.8747
11.8112
11.7919
11.8108
11.8936
12.0251
12.1695
12.2767
12.3327
12.343
12.3145
12.2634
12.2067
12.1579
12.1347
12.1428
12.1771
12.2216
12.2613
12.2859
12.2987
12.3113
12.3215
12.3281
12.3227
12.3068
12.2968
12.3055
12.336
12.3809
12.4289
12.4701
12.4987
12.5123
12.5082
12.4812
12.431
12.3694
12.3219
12.2827
12.2842
1
1
1
1
1
1
1
1
1
1
1
1
1
1
1
1
1
1
1
1
1
1
1
1
1
1
1
1
1
1
1
1
1
1
1
1
1
1
1
1
1
1
1
1
1
1
1
1
1
1
1
1
1
1
1
1
1
1
1
1
1
1
1
1
1
1
1
1
1
1
1
1
1
1
1
1
1
1
1
1
1
1
1
1
1
1
1
1
1
1
1
1
1
1
1
1
1
1
1
1
1
1
1
1
1
1
1
1
1
1
1
1
1
1
1
1
1
1
1
2.53166
9.54152
11.0793
11.094
11.1362
11.1818
11.2056
11.2067
11.1876
11.1937
11.2417
11.3412
11.4501
11.5278
11.5475
11.5448
11.5276
11.5352
11.5993
11.7112
11.8118
11.8662
11.877
11.8442
11.7872
11.7544
11.7539
11.8129
11.9154
11.9851
11.9915
11.9417
11.8632
11.8157
11.7996
11.8196
11.8958
12.019
12.1588
12.2645
12.3197
12.3334
12.3097
12.2606
12.2031
12.1505
12.1212
12.1233
12.1534
12.1961
12.2368
12.2654
12.2853
12.3075
12.3253
12.3341
12.3282
12.3095
12.2938
12.296
12.3216
12.3641
12.4117
12.4532
12.4816
12.494
12.4884
12.4612
12.4142
12.3584
12.3176
12.2837
12.2892
1
1
1
1
1
1
1
1
1
1
1
1
1
1
1
1
1
1
1
1
1
1
1
1
1
1
1
1
1
1
1
1
1
1
1
1
1
1
1
1
1
1
1
1
1
1
1
1
1
1
1
1
1
1
1
1
1
1
1
1
1
1
1
1
1
1
1
1
1
1
1
1
1
1
1
1
1
1
1
1
1
1
1
1
1
1
1
1
1
1
1
1
1
1
1
1
1
1
1
1
1
1
1
1
1
1
1
1
1
1
1
1
1
1
1
1
1
1
1
2.15189
9.07506
11.0753
11.0798
11.107
11.1669
11.1895
11.1915
11.1819
11.2014
11.2529
11.3626
11.4744
11.5408
11.5516
11.5415
11.5221
11.5298
11.5917
11.7033
11.806
11.8625
11.8731
11.8368
11.775
11.735
11.7304
11.7856
11.8896
11.9623
11.9688
11.9235
11.857
11.8232
11.8106
11.8293
11.8963
12.0106
12.145
12.2493
12.305
12.3237
12.3056
12.2583
12.1994
12.1422
12.1062
12.1021
12.1278
12.1688
12.2111
12.2447
12.2728
12.305
12.3297
12.3399
12.3331
12.3113
12.2898
12.2853
12.3059
12.3463
12.3938
12.4359
12.464
12.4747
12.4671
12.4392
12.3955
12.3467
12.3135
12.2851
12.2943
1
1
1
1
1
1
1
1
1
1
1
1
1
1
1
1
1
1
1
1
1
1
1
1
1
1
1
1
1
1
1
1
1
1
1
1
1
1
1
1
1
1
1
1
1
1
1
1
1
1
1
1
1
1
1
1
1
1
1
1
1
1
1
1
1
1
1
1
1
1
1
1
1
1
1
1
1
1
1
1
1
1
1
1
1
1
1
1
1
1
1
1
1
1
1
1
1
1
1
1
1
1
1
1
1
1
1
1
1
1
1
1
1
1
1
1
1
1
1
1.77492
8.51547
11.0882
11.044
11.0877
11.1498
11.1747
11.1815
11.1925
11.2257
11.2755
11.3821
11.4866
11.5413
11.5481
11.5366
11.5189
11.5265
11.5845
11.6947
11.7991
11.857
11.8668
11.8264
11.7595
11.7137
11.7066
11.7579
11.8619
11.9369
11.9447
11.9071
11.8592
11.8326
11.8237
11.8379
11.8949
11.9996
12.1282
12.2314
12.2893
12.3142
12.3017
12.2558
12.1951
12.133
12.0899
12.0796
12.1005
12.1398
12.1844
12.2241
12.2614
12.3037
12.3345
12.3456
12.3375
12.3123
12.2848
12.2734
12.2889
12.3273
12.375
12.4177
12.4455
12.4546
12.4445
12.4156
12.3753
12.3344
12.3096
12.2867
12.2994
1
1
1
1
1
1
1
1
1
1
1
1
1
1
1
1
1
1
1
1
1
1
1
1
1
1
1
1
1
1
1
1
1
1
1
1
1
1
1
1
1
1
1
1
1
1
1
1
1
1
1
1
1
1
1
1
1
1
1
1
1
1
1
1
1
1
1
1
1
1
1
1
1
1
1
1
1
1
1
1
1
1
1
1
1
1
1
1
1
1
1
1
1
1
1
1
1
1
1
1
1
1
1
1
1
1
1
1
1
1
1
1
1
1
1
1
1
1
1
1.42527
7.8558
11.062
11.0246
11.0668
11.1375
11.1718
11.1899
11.2179
11.256
11.2992
11.3894
11.484
11.5316
11.5421
11.5338
11.5181
11.5241
11.5769
11.6849
11.7908
11.849
11.8569
11.8123
11.7415
11.6917
11.6838
11.7303
11.8314
11.9084
11.9211
11.8936
11.8687
11.8473
11.8358
11.8442
11.8912
11.9855
12.1086
12.2113
12.2733
12.3049
12.2975
12.2528
12.1898
12.1226
12.0725
12.0561
12.072
12.1093
12.1567
12.2036
12.2511
12.3032
12.3393
12.3509
12.3412
12.3125
12.2791
12.2607
12.271
12.3071
12.3548
12.3982
12.4258
12.4333
12.421
12.3909
12.3537
12.3215
12.3057
12.2884
12.3042
1
1
1
1
1
1
1
1
1
1
1
1
1
1
1
1
1
1
1
1
1
1
1
1
1
1
1
1
1
1
1
1
1
1
1
1
1
1
1
1
1
1
1
1
1
1
1
1
1
1
1
1
1
1
1
1
1
1
1
1
1
1
1
1
1
1
1
1
1
1
1
1
1
1
1
1
1
1
1
1
1
1
1
1
1
1
1
1
1
1
1
1
1
1
1
1
1
1
1
1
1
1
1
1
1
1
1
1
1
1
1
1
1
1
1
1
1
1
1
1.12479
7.11708
11.0557
11.0503
11.0659
11.1389
11.1821
11.2197
11.2515
11.2751
11.3115
11.3827
11.4706
11.5182
11.5373
11.5336
11.5179
11.5215
11.5689
11.6735
11.7804
11.8373
11.842
11.7945
11.7223
11.6707
11.6626
11.703
11.798
11.8768
11.8998
11.8865
11.8822
11.8659
11.8457
11.8475
11.8854
11.9687
12.0862
12.1897
12.2573
12.2957
12.2927
12.2485
12.183
12.1109
12.0544
12.032
12.0425
12.0775
12.1285
12.1838
12.2418
12.3029
12.3434
12.3552
12.3439
12.3117
12.2728
12.2477
12.2525
12.286
12.3333
12.3771
12.4044
12.4107
12.3964
12.3654
12.3315
12.3083
12.3018
12.2898
12.3086
1
1
1
1
1
1
1
1
1
1
1
1
1
1
1
1
1
1
1
1
1
1
1
1
1
1
1
1
1
1
1
1
1
1
1
1
1
1
1
1
1
1
1
1
1
1
1
1
1
1
1
1
1
1
1
1
1
1
1
1
1
1
1
1
1
1
1
1
1
1
1
1
1
1
1
1
1
1
1
1
1
1
1
1
1
1
1
1
1
1
1
1
1
1
1
1
1
1
1
1
1
1
1
1
1
1
1
1
1
1
1
1
1
1
1
1
1
1
1
1.00239
6.5067
11.0329
11.0656
11.0811
11.158
11.2022
11.2472
11.2762
11.2778
11.3069
11.3678
11.4543
11.5071
11.5347
11.5336
11.517
11.519
11.5607
11.6595
11.7658
11.8204
11.8215
11.7739
11.704
11.652
11.6426
11.6748
11.7617
11.8437
11.8828
11.8891
11.898
11.8829
11.8531
11.8483
11.8776
11.949
12.0615
12.1673
12.2416
12.2862
12.2868
12.2425
12.1743
12.0976
12.0356
12.0075
12.0124
12.0452
12.1004
12.1648
12.2338
12.3023
12.346
12.358
12.3451
12.3098
12.2661
12.2348
12.234
12.2643
12.3105
12.3541
12.381
12.3861
12.3706
12.3393
12.309
12.2949
12.2977
12.2909
12.3125
1
1
1
1
1
1
1
1
1
1
1
1
1
1
1
1
1
1
1
1
1
1
1
1
1
1
1
1
1
1
1
1
1
1
1
1
1
1
1
1
1
1
1
1
1
1
1
1
1
1
1
1
1
1
1
1
1
1
1
1
1
1
1
1
1
1
1
1
1
1
1
1
1
1
1
1
1
1
1
1
1
1
1
1
1
1
1
1
1
1
1
1
1
1
1
1
1
1
1
1
1
1
1
1
1
1
1
1
1
1
1
1
1
1
1
1
1
1
1
1
5.9087
10.9888
11.0732
11.1052
11.1671
11.2154
11.2536
11.279
11.2685
11.2914
11.3526
11.4394
11.4995
11.5326
11.5313
11.5156
11.5167
11.552
11.6417
11.7452
11.7975
11.7971
11.7529
11.6881
11.6358
11.6218
11.6438
11.7241
11.8124
11.8718
11.8995
11.9153
11.8968
11.8588
11.8474
11.8674
11.9269
12.0356
12.1447
12.2261
12.2759
12.2789
12.2341
12.1634
12.0827
12.016
11.9825
11.9822
12.013
12.0732
12.1473
12.2265
12.3009
12.3467
12.3586
12.3442
12.3064
12.259
12.2222
12.2158
12.2423
12.2866
12.3292
12.3553
12.3595
12.3433
12.3128
12.2866
12.2813
12.293
12.2915
12.3157
1
1
1
1
1
1
1
1
1
1
1
1
1
1
1
1
1
1
1
1
1
1
1
1
1
1
1
1
1
1
1
1
1
1
1
1
1
1
1
1
1
1
1
1
1
1
1
1
1
1
1
1
1
1
1
1
1
1
1
1
1
1
1
1
1
1
1
1
1
1
1
1
1
1
1
1
1
1
1
1
1
1
1
1
1
1
1
1
1
1
1
1
1
1
1
1
1
1
1
1
1
1
1
1
1
1
1
1
1
1
1
1
1
1
1
1
1
1
1
1
5.32847
10.8932
11.0653
11.1098
11.1587
11.2087
11.2495
11.2627
11.2582
11.2768
11.3401
11.426
11.4935
11.5292
11.5273
11.514
11.5136
11.5408
11.6181
11.7175
11.7694
11.7719
11.7341
11.6746
11.6204
11.5983
11.609
11.687
11.7872
11.8673
11.9128
11.9323
11.9079
11.8635
11.8445
11.8544
11.9039
12.0094
12.1222
12.2102
12.264
12.2686
12.2232
12.1504
12.0664
11.9955
11.957
11.9518
11.9814
12.0478
12.1318
12.2198
12.2981
12.3449
12.3564
12.3407
12.3012
12.2511
12.2101
12.1983
12.2204
12.2619
12.3027
12.3274
12.3306
12.3143
12.2857
12.2644
12.2674
12.2874
12.2914
12.3185
1
1
1
1
1
1
1
1
1
1
1
1
1
1
1
1
1
1
1
1
1
1
1
1
1
1
1
1
1
1
1
1
1
1
1
1
1
1
1
1
1
1
1
1
1
1
1
1
1
1
1
1
1
1
1
1
1
1
1
1
1
1
1
1
1
1
1
1
1
1
1
1
1
1
1
1
1
1
1
1
1
1
1
1
1
1
1
1
1
1
1
1
1
1
1
1
1
1
1
1
1
1
1
1
1
1
1
1
1
1
1
1
1
1
1
1
1
1
1
1
4.76117
10.7349
11.0404
11.076
11.1414
11.1969
11.2432
11.2403
11.2497
11.2704
11.3296
11.4132
11.4865
11.5241
11.5245
11.5123
11.5075
11.5246
11.587
11.6834
11.739
11.7491
11.7181
11.6622
11.6041
11.5711
11.5718
11.6544
11.7702
11.8683
11.9255
11.9462
11.917
11.8674
11.8386
11.8389
11.8815
11.9841
12.1
12.1935
12.2498
12.2553
12.2097
12.1354
12.0487
11.974
11.9308
11.9215
11.951
12.025
12.1184
12.2133
12.2938
12.3407
12.3513
12.3344
12.2938
12.2425
12.1983
12.1814
12.1984
12.2362
12.2744
12.2974
12.2997
12.2837
12.2579
12.2428
12.2534
12.2803
12.2911
12.3205
1
1
1
1
1
1
1
1
1
1
1
1
1
1
1
1
1
1
1
1
1
1
1
1
1
1
1
1
1
1
1
1
1
1
1
1
1
1
1
1
1
1
1
1
1
1
1
1
1
1
1
1
1
1
1
1
1
1
1
1
1
1
1
1
1
1
1
1
1
1
1
1
1
1
1
1
1
1
1
1
1
1
1
1
1
1
1
1
1
1
1
1
1
1
1
1
1
1
1
1
1
1
1
1
1
1
1
1
1
1
1
1
1
1
1
1
1
1
1
1
4.22324
10.5177
10.9975
11.036
11.1152
11.1822
11.2237
11.2286
11.243
11.2654
11.3173
11.3992
11.4777
11.5174
11.5232
11.5086
11.4955
11.5015
11.5499
11.6465
11.7099
11.7297
11.7037
11.6483
11.5848
11.5412
11.5376
11.6293
11.7608
11.8723
11.936
11.9561
11.9244
11.8688
11.8295
11.8232
11.8607
11.96
12.0778
12.175
12.2326
12.2387
12.1936
12.1188
12.0301
11.9514
11.9037
11.8916
11.9228
12.0053
12.1069
12.2066
12.2878
12.3337
12.3432
12.3253
12.2844
12.2329
12.1867
12.1649
12.1763
12.2096
12.2446
12.2654
12.267
12.2519
12.2297
12.2216
12.2392
12.2716
12.2899
12.3214
1
1
1
1
1
1
1
1
1
1
1
1
1
1
1
1
1
1
1
1
1
1
1
1
1
1
1
1
1
1
1
1
1
1
1
1
1
1
1
1
1
1
1
1
1
1
1
1
1
1
1
1
1
1
1
1
1
1
1
1
1
1
1
1
1
1
1
1
1
1
1
1
1
1
1
1
1
1
1
1
1
1
1
1
1
1
1
1
1
1
1
1
1
1
1
1
1
1
1
1
1
1
1
1
1
1
1
1
1
1
1
1
1
1
1
1
1
1
1
1
3.73972
10.2374
10.9462
10.9915
11.0849
11.1618
11.2005
11.2247
11.2392
11.2603
11.3033
11.3832
11.4681
11.5098
11.5194
11.4998
11.4768
11.4731
11.5116
11.61
11.6838
11.7119
11.6877
11.6308
11.5625
11.5121
11.5124
11.6131
11.7558
11.8757
11.9429
11.9619
11.928
11.8672
11.8194
11.8085
11.8421
11.9371
12.055
12.1541
12.2118
12.2184
12.175
12.1008
12.0108
11.9283
11.8761
11.8625
11.8973
11.9884
12.0967
12.1992
12.2796
12.3237
12.332
12.3134
12.2732
12.2225
12.1751
12.1485
12.1535
12.1816
12.213
12.2316
12.2328
12.219
12.2012
12.2006
12.2251
12.2621
12.2874
12.3201
1
1
1
1
1
1
1
1
1
1
1
1
1
1
1
1
1
1
1
1
1
1
1
1
1
1
1
1
1
1
1
1
1
1
1
1
1
1
1
1
1
1
1
1
1
1
1
1
1
1
1
1
1
1
1
1
1
1
1
1
1
1
1
1
1
1
1
1
1
1
1
1
1
1
1
1
1
1
1
1
1
1
1
1
1
1
1
1
1
1
1
1
1
1
1
1
1
1
1
1
1
1
1
1
1
1
1
1
1
1
1
1
1
1
1
1
1
1
1
1
3.26258
9.90088
10.9178
10.9604
11.0602
11.1345
11.1937
11.2203
11.2359
11.2516
11.289
11.3675
11.4563
11.4999
11.5099
11.4855
11.455
11.4433
11.4759
11.575
11.6592
11.6925
11.668
11.6098
11.5387
11.4896
11.4998
11.6032
11.7516
11.8764
11.9451
11.9631
11.9275
11.8632
11.8095
11.7954
11.8256
11.9147
12.0305
12.1298
12.1867
12.1945
12.154
12.0817
11.9913
11.9052
11.8482
11.8346
11.8756
11.9735
12.0869
12.1903
12.2689
12.3108
12.318
12.2993
12.2605
12.2115
12.1634
12.1318
12.1297
12.1516
12.1792
12.196
12.1973
12.1858
12.1728
12.18
12.2109
12.252
12.2831
12.3161
1
1
1
1
1
1
1
1
1
1
1
1
1
1
1
1
1
1
1
1
1
1
1
1
1
1
1
1
1
1
1
1
1
1
1
1
1
1
1
1
1
1
1
1
1
1
1
1
1
1
1
1
1
1
1
1
1
1
1
1
1
1
1
1
1
1
1
1
1
1
1
1
1
1
1
1
1
1
1
1
1
1
1
1
1
1
1
1
1
1
1
1
1
1
1
1
1
1
1
1
1
1
1
1
1
1
1
1
1
1
1
1
1
1
1
1
1
1
1
1
2.7049
9.47774
10.9541
10.9801
11.0581
11.1275
11.1907
11.2189
11.236
11.2408
11.2753
11.3512
11.441
11.4864
11.4948
11.4672
11.4333
11.4163
11.4442
11.5405
11.6324
11.668
11.6447
11.5881
11.5191
11.4797
11.498
11.5965
11.7447
11.8725
11.9419
11.9594
11.9236
11.8579
11.8007
11.784
11.8105
11.8918
12.0034
12.1016
12.1572
12.167
12.131
12.0615
11.9713
11.8826
11.8214
11.8095
11.8575
11.9604
12.0761
12.179
12.2553
12.295
12.3015
12.2834
12.2469
12.2
12.1515
12.1148
12.1044
12.1193
12.1428
12.1581
12.1607
12.1525
12.1453
12.1602
12.1969
12.2413
12.2766
12.3094
1
1
1
1
1
1
1
1
1
1
1
1
1
1
1
1
1
1
1
1
1
1
1
1
1
1
1
1
1
1
1
1
1
1
1
1
1
1
1
1
1
1
1
1
1
1
1
1
1
1
1
1
1
1
1
1
1
1
1
1
1
1
1
1
1
1
1
1
1
1
1
1
1
1
1
1
1
1
1
1
1
1
1
1
1
1
1
1
1
1
1
1
1
1
1
1
1
1
1
1
1
1
1
1
1
1
1
1
1
1
1
1
1
1
1
1
1
1
1
1
2.10736
8.92942
11.0623
11.0515
11.0809
11.1406
11.1983
11.2295
11.2324
11.2348
11.2632
11.3308
11.422
11.4685
11.4771
11.449
11.414
11.3928
11.4153
11.5038
11.6
11.6372
11.6204
11.5707
11.51
11.4824
11.5029
11.5904
11.7332
11.8622
11.9322
11.9507
11.9174
11.8529
11.7938
11.774
11.7958
11.8673
11.9727
12.0689
12.1235
12.1364
12.1062
12.04
11.9506
11.8605
11.797
11.7888
11.8433
11.9483
12.0635
12.1644
12.2382
12.2761
12.2827
12.2663
12.2328
12.1882
12.1394
12.0974
12.0778
12.0843
12.1034
12.1179
12.1227
12.1193
12.1189
12.1414
12.1831
12.2297
12.2676
12.2996
1
1
1
1
1
1
1
1
1
1
1
1
1
1
1
1
1
1
1
1
1
1
1
1
1
1
1
1
1
1
1
1
1
1
1
1
1
1
1
1
1
1
1
1
1
1
1
1
1
1
1
1
1
1
1
1
1
1
1
1
1
1
1
1
1
1
1
1
1
1
1
1
1
1
1
1
1
1
1
1
1
1
1
1
1
1
1
1
1
1
1
1
1
1
1
1
1
1
1
1
1
1
1
1
1
1
1
1
1
1
1
1
1
1
1
1
1
1
1
1
1.53729
8.1179
11.1022
11.1052
11.1265
11.1846
11.2213
11.2287
11.2308
11.232
11.2525
11.31
11.3988
11.4498
11.4608
11.4331
11.3964
11.3706
11.3856
11.4615
11.5611
11.6044
11.5994
11.561
11.5152
11.4931
11.5104
11.5832
11.7163
11.8447
11.9164
11.938
11.9103
11.8492
11.7892
11.7645
11.7804
11.8406
11.9376
12.0314
12.0862
12.1035
12.0799
12.0173
11.929
11.8384
11.7764
11.7738
11.8325
11.9361
12.0482
12.1461
12.2175
12.2542
12.2616
12.248
12.2182
12.1762
12.1267
12.0794
12.0499
12.0469
12.061
12.0752
12.0836
12.0862
12.094
12.1238
12.1694
12.2171
12.2558
12.2864
1
1
1
1
1
1
1
1
1
1
1
1
1
1
1
1
1
1
1
1
1
1
1
1
1
1
1
1
1
1
1
1
1
1
1
1
1
1
1
1
1
1
1
1
1
1
1
1
1
1
1
1
1
1
1
1
1
1
1
1
1
1
1
1
1
1
1
1
1
1
1
1
1
1
1
1
1
1
1
1
1
1
1
1
1
1
1
1
1
1
1
1
1
1
1
1
1
1
1
1
1
1
1
1
1
1
1
1
1
1
1
1
1
1
1
1
1
1
1
1
1.0581
7.04904
11.1579
11.1383
11.1408
11.1844
11.2186
11.2294
11.2314
11.2325
11.2393
11.2901
11.3736
11.4313
11.443
11.4179
11.3785
11.3461
11.3524
11.4157
11.5191
11.5763
11.5856
11.5623
11.5307
11.5063
11.5169
11.5734
11.6937
11.8206
11.8962
11.9233
11.9037
11.8475
11.7866
11.7547
11.7634
11.8115
11.8981
11.9893
12.0464
12.0688
12.0518
11.993
11.9066
11.8168
11.761
11.7644
11.8236
11.9226
12.0299
12.1241
12.1929
12.2292
12.2385
12.2287
12.2032
12.1638
12.1135
12.0606
12.0209
12.0075
12.0159
12.0301
12.0432
12.0532
12.0704
12.1075
12.1558
12.2032
12.2413
12.2698
1
1
1
1
1
1
1
1
1
1
1
1
1
1
1
1
1
1
1
1
1
1
1
1
1
1
1
1
1
1
1
1
1
1
1
1
1
1
1
1
1
1
1
1
1
1
1
1
1
1
1
1
1
1
1
1
1
1
1
1
1
1
1
1
1
1
1
1
1
1
1
1
1
1
1
1
1
1
1
1
1
1
1
1
1
1
1
1
1
1
1
1
1
1
1
1
1
1
1
1
1
1
1
1
1
1
1
1
1
1
1
1
1
1
1
1
1
1
1
1
1.0005
5.88406
11.0685
11.118
11.1124
11.1673
11.1994
11.2242
11.2253
11.2236
11.2223
11.2672
11.3478
11.4093
11.4213
11.3997
11.3579
11.3194
11.3173
11.3722
11.4806
11.5561
11.5802
11.5758
11.5487
11.5174
11.5193
11.5599
11.6654
11.7911
11.8735
11.9079
11.8978
11.8476
11.7852
11.7446
11.7445
11.78
11.8544
11.9434
12.0049
12.033
12.0217
11.9668
11.8839
11.7975
11.751
11.7591
11.8153
11.9071
12.0087
12.0985
12.1649
12.2014
12.2134
12.2083
12.1873
12.1503
12.0991
12.0409
11.9913
11.9668
11.9687
11.9831
12.0015
12.02
12.0477
12.0919
12.1418
12.1877
12.224
12.2496
1
1
1
1
1
1
1
1
1
1
1
1
1
1
1
1
1
1
1
1
1
1
1
1
1
1
1
1
1
1
1
1
1
1
1
1
1
1
1
1
1
1
1
1
1
1
1
1
1
1
1
1
1
1
1
1
1
1
1
1
1
1
1
1
1
1
1
1
1
1
1
1
1
1
1
1
1
1
1
1
1
1
1
1
1
1
1
1
1
1
1
1
1
1
1
1
1
1
1
1
1
1
1
1
1
1
1
1
1
1
1
1
1
1
1
1
1
1
1
1
1
4.81746
10.8158
11.0741
11.0827
11.1373
11.1754
11.2032
11.2094
11.2017
11.2024
11.2406
11.3191
11.3785
11.3945
11.3766
11.3343
11.2935
11.2856
11.3371
11.4512
11.5444
11.5853
11.5934
11.5633
11.5239
11.5159
11.5412
11.6324
11.7582
11.8497
11.8925
11.8925
11.848
11.7836
11.7338
11.723
11.7457
11.8077
11.8953
11.9626
11.996
11.9892
11.9382
11.8616
11.7835
11.7461
11.7554
11.8057
11.8891
11.9846
12.0699
12.1339
12.1713
12.1867
12.1866
12.1702
12.1353
12.0831
12.0201
11.9613
11.9258
11.9205
11.9347
11.9587
11.9869
12.0254
12.076
12.1269
12.1705
12.2039
12.226
1
1
1
1
1
1
1
1
1
1
1
1
1
1
1
1
1
1
1
1
1
1
1
1
1
1
1
1
1
1
1
1
1
1
1
1
1
1
1
1
1
1
1
1
1