/*--------------------------------*- C++ -*----------------------------------*\
  =========                 |
  \\      /  F ield         | OpenFOAM: The Open Source CFD Toolbox
   \\    /   O peration     | Website:  https://openfoam.org
    \\  /    A nd           | Version:  7
     \\/     M anipulation  |
\*---------------------------------------------------------------------------*/
FoamFile
{
    version     2.0;
    format      ascii;
    class       volScalarField;
    location    "0.6";
    object      rho;
}
// * * * * * * * * * * * * * * * * * * * * * * * * * * * * * * * * * * * * * //

dimensions      [1 -3 0 0 0 0 0];

internalField   nonuniform List<scalar> 
258048
(
1.40001
1.40001
1.40001
1.40001
1.40001
1.40001
1.40001
1.40001
1.40001
1.40001
1.40001
1.40001
1.40001
1.40001
1.40001
1.40001
1.40001
1.40001
1.40001
1.40001
1.40001
1.40001
1.40001
1.40001
1.40001
1.40001
1.40001
1.40001
1.40001
1.40001
1.40001
1.40001
1.40001
1.40001
1.40001
1.40001
1.40001
1.40001
1.40001
1.40001
1.40001
1.40001
1.40001
1.40001
1.40001
1.40001
1.40001
1.40001
1.40001
1.40001
1.40001
1.40001
1.40001
1.40001
1.40001
1.40001
1.40001
1.40001
1.40001
1.40001
1.40001
1.40001
1.40001
1.40001
1.40001
1.40001
1.40001
1.40001
1.40001
1.40001
1.40001
1.40001
1.40001
1.40001
1.40001
1.40001
1.40001
1.40001
1.40001
1.40001
1.40001
1.40001
1.40001
1.40001
1.40001
1.40001
1.40001
1.40001
1.40001
1.40001
1.40001
1.40001
1.40001
1.40001
1.40001
1.40001
1.40001
1.40001
1.40001
1.40001
1.40001
1.40001
1.40001
1.40001
1.40001
1.40001
1.40001
1.40001
1.40001
1.40001
1.40001
1.40001
1.40001
1.40001
1.40001
1.40001
1.40001
1.40001
1.40001
3.81041
5.48802
5.54201
5.57529
5.62126
5.64992
5.65328
5.63657
5.6223
5.62219
5.64325
5.67174
5.68702
5.67933
5.65449
5.62755
5.62083
5.64101
5.68703
5.73834
5.77316
5.78884
5.78869
5.77735
5.7696
5.77089
5.79005
5.82643
5.85683
5.86667
5.86074
5.84063
5.80982
5.7773
5.74794
5.73462
5.75092
5.79042
5.83217
5.86472
5.88073
5.87774
5.8629
5.83914
5.81345
5.79388
5.78638
5.78847
5.79581
5.80279
5.80234
5.78839
5.75831
5.7164
5.67007
5.62708
5.58972
5.553
5.51664
5.47648
5.42472
5.35877
5.28287
5.20803
5.14534
5.09838
5.06318
5.03246
5.00091
4.96722
4.93609
4.91141
4.8971
1.40001
1.40001
1.40001
1.40001
1.40001
1.40001
1.40001
1.40001
1.40001
1.40001
1.40001
1.40001
1.40001
1.40001
1.40001
1.40001
1.40001
1.40001
1.40001
1.40001
1.40001
1.40001
1.40001
1.40001
1.40001
1.40001
1.40001
1.40001
1.40001
1.40001
1.40001
1.40001
1.40001
1.40001
1.40001
1.40001
1.40001
1.40001
1.40001
1.40001
1.40001
1.40001
1.40001
1.40001
1.40001
1.40001
1.40001
1.40001
1.40001
1.40001
1.40001
1.40001
1.40001
1.40001
1.40001
1.40001
1.40001
1.40001
1.40001
1.40001
1.40001
1.40001
1.40001
1.40001
1.40001
1.40001
1.40001
1.40001
1.40001
1.40001
1.40001
1.40001
1.40001
1.40001
1.40001
1.40001
1.40001
1.40001
1.40001
1.40001
1.40001
1.40001
1.40001
1.40001
1.40001
1.40001
1.40001
1.40001
1.40001
1.40001
1.40001
1.40001
1.40001
1.40001
1.40001
1.40001
1.40001
1.40001
1.40001
1.40001
1.40001
1.40001
1.40001
1.40001
1.40001
1.40001
1.40001
1.40001
1.40001
1.40001
1.40001
1.40001
1.40001
1.40001
1.40001
1.40001
1.40001
1.40001
1.40001
3.79585
5.47132
5.54698
5.57758
5.62299
5.65039
5.65326
5.63681
5.62235
5.62168
5.64267
5.67099
5.68623
5.67854
5.65368
5.62709
5.62081
5.64129
5.68751
5.73892
5.77375
5.7893
5.78884
5.77724
5.76928
5.77052
5.78974
5.82614
5.85656
5.86641
5.86046
5.84034
5.80945
5.77683
5.74744
5.73424
5.75073
5.79027
5.83213
5.86478
5.88082
5.87786
5.86294
5.8391
5.81334
5.79375
5.78623
5.7883
5.7956
5.80249
5.80192
5.78784
5.75771
5.71583
5.66965
5.62682
5.58954
5.55267
5.51618
5.47567
5.42357
5.35738
5.28147
5.20684
5.14444
5.09776
5.06277
5.03217
5.00071
4.9671
4.93599
4.91134
4.89702
1.40001
1.40001
1.40001
1.40001
1.40001
1.40001
1.40001
1.40001
1.40001
1.40001
1.40001
1.40001
1.40001
1.40001
1.40001
1.40001
1.40001
1.40001
1.40001
1.40001
1.40001
1.40001
1.40001
1.40001
1.40001
1.40001
1.40001
1.40001
1.40001
1.40001
1.40001
1.40001
1.40001
1.40001
1.40001
1.40001
1.40001
1.40001
1.40001
1.40001
1.40001
1.40001
1.40001
1.40001
1.40001
1.40001
1.40001
1.40001
1.40001
1.40001
1.40001
1.40001
1.40001
1.40001
1.40001
1.40001
1.40001
1.40001
1.40001
1.40001
1.40001
1.40001
1.40001
1.40001
1.40001
1.40001
1.40001
1.40001
1.40001
1.40001
1.40001
1.40001
1.40001
1.40001
1.40001
1.40001
1.40001
1.40001
1.40001
1.40001
1.40001
1.40001
1.40001
1.40001
1.40001
1.40001
1.40001
1.40001
1.40001
1.40001
1.40001
1.40001
1.40001
1.40001
1.40001
1.40001
1.40001
1.40001
1.40001
1.40001
1.40001
1.40001
1.40001
1.40001
1.40001
1.40001
1.40001
1.40001
1.40001
1.40001
1.40001
1.40001
1.40001
1.40001
1.40001
1.40001
1.40001
1.40001
1.40001
3.77563
5.45784
5.54744
5.57948
5.62274
5.64923
5.65148
5.63599
5.62196
5.621
5.64197
5.67013
5.68516
5.67716
5.65201
5.62583
5.62039
5.64137
5.68803
5.73964
5.77454
5.78999
5.78909
5.77701
5.76866
5.7698
5.78908
5.82552
5.85603
5.86592
5.85996
5.83985
5.80888
5.77606
5.74656
5.73346
5.75018
5.78986
5.83201
5.86485
5.88094
5.87803
5.86293
5.83891
5.81302
5.79335
5.78576
5.78775
5.79498
5.80178
5.80105
5.7868
5.7566
5.71469
5.66871
5.62605
5.58883
5.55157
5.51463
5.47323
5.42028
5.35353
5.27764
5.20362
5.14208
5.09618
5.06177
5.03155
5.00034
4.96687
4.9358
4.91116
4.89682
1.40001
1.40001
1.40001
1.40001
1.40001
1.40001
1.40001
1.40001
1.40001
1.40001
1.40001
1.40001
1.40001
1.40001
1.40001
1.40001
1.40001
1.40001
1.40001
1.40001
1.40001
1.40001
1.40001
1.40001
1.40001
1.40001
1.40001
1.40001
1.40001
1.40001
1.40001
1.40001
1.40001
1.40001
1.40001
1.40001
1.40001
1.40001
1.40001
1.40001
1.40001
1.40001
1.40001
1.40001
1.40001
1.40001
1.40001
1.40001
1.40001
1.40001
1.40001
1.40001
1.40001
1.40001
1.40001
1.40001
1.40001
1.40001
1.40001
1.40001
1.40001
1.40001
1.40001
1.40001
1.40001
1.40001
1.40001
1.40001
1.40001
1.40001
1.40001
1.40001
1.40001
1.40001
1.40001
1.40001
1.40001
1.40001
1.40001
1.40001
1.40001
1.40001
1.40001
1.40001
1.40001
1.40001
1.40001
1.40001
1.40001
1.40001
1.40001
1.40001
1.40001
1.40001
1.40001
1.40001
1.40001
1.40001
1.40001
1.40001
1.40001
1.40001
1.40001
1.40001
1.40001
1.40001
1.40001
1.40001
1.40001
1.40001
1.40001
1.40001
1.40001
1.40001
1.40001
1.40001
1.40001
1.40001
1.40001
3.74296
5.44673
5.54711
5.58145
5.62229
5.64827
5.64982
5.63491
5.6211
5.61968
5.64057
5.66859
5.68331
5.67492
5.64949
5.62419
5.62012
5.6418
5.68911
5.74095
5.7758
5.79095
5.78926
5.77649
5.76762
5.76873
5.78813
5.82458
5.85518
5.86509
5.85914
5.83903
5.80796
5.77489
5.74525
5.73235
5.74944
5.78942
5.83196
5.86506
5.8812
5.87834
5.86297
5.83865
5.81257
5.79276
5.78505
5.78696
5.79407
5.80073
5.79979
5.78529
5.75504
5.71323
5.66756
5.62513
5.58798
5.55009
5.51241
5.46961
5.41525
5.34752
5.27157
5.19842
5.1382
5.09359
5.06013
5.03054
4.99971
4.96645
4.93546
4.91091
4.89664
1.40001
1.40001
1.40001
1.40001
1.40001
1.40001
1.40001
1.40001
1.40001
1.40001
1.40001
1.40001
1.40001
1.40001
1.40001
1.40001
1.40001
1.40001
1.40001
1.40001
1.40001
1.40001
1.40001
1.40001
1.40001
1.40001
1.40001
1.40001
1.40001
1.40001
1.40001
1.40001
1.40001
1.40001
1.40001
1.40001
1.40001
1.40001
1.40001
1.40001
1.40001
1.40001
1.40001
1.40001
1.40001
1.40001
1.40001
1.40001
1.40001
1.40001
1.40001
1.40001
1.40001
1.40001
1.40001
1.40001
1.40001
1.40001
1.40001
1.40001
1.40001
1.40001
1.40001
1.40001
1.40001
1.40001
1.40001
1.40001
1.40001
1.40001
1.40001
1.40001
1.40001
1.40001
1.40001
1.40001
1.40001
1.40001
1.40001
1.40001
1.40001
1.40001
1.40001
1.40001
1.40001
1.40001
1.40001
1.40001
1.40001
1.40001
1.40001
1.40001
1.40001
1.40001
1.40001
1.40001
1.40001
1.40001
1.40001
1.40001
1.40001
1.40001
1.40001
1.40001
1.40001
1.40001
1.40001
1.40001
1.40001
1.40001
1.40001
1.40001
1.40001
1.40001
1.40001
1.40001
1.40001
1.40001
1.40001
3.7004
5.43763
5.54678
5.58333
5.62237
5.6478
5.64822
5.63291
5.61907
5.61783
5.63881
5.66685
5.6812
5.67217
5.64633
5.62228
5.62004
5.64258
5.69067
5.74268
5.77736
5.79203
5.78929
5.7757
5.76626
5.76743
5.78692
5.82334
5.85403
5.86397
5.85804
5.83795
5.80674
5.77334
5.74354
5.73093
5.74853
5.789
5.83201
5.8654
5.8816
5.87877
5.86306
5.83836
5.812
5.79198
5.78408
5.78584
5.7928
5.79933
5.7982
5.7835
5.75326
5.71168
5.66651
5.62441
5.58736
5.54884
5.51031
5.46595
5.40998
5.34101
5.26479
5.19243
5.1336
5.09043
5.05808
5.0292
4.99881
4.96582
4.93496
4.91058
4.89655
1.40001
1.40001
1.40001
1.40001
1.40001
1.40001
1.40001
1.40001
1.40001
1.40001
1.40001
1.40001
1.40001
1.40001
1.40001
1.40001
1.40001
1.40001
1.40001
1.40001
1.40001
1.40001
1.40001
1.40001
1.40001
1.40001
1.40001
1.40001
1.40001
1.40001
1.40001
1.40001
1.40001
1.40001
1.40001
1.40001
1.40001
1.40001
1.40001
1.40001
1.40001
1.40001
1.40001
1.40001
1.40001
1.40001
1.40001
1.40001
1.40001
1.40001
1.40001
1.40001
1.40001
1.40001
1.40001
1.40001
1.40001
1.40001
1.40001
1.40001
1.40001
1.40001
1.40001
1.40001
1.40001
1.40001
1.40001
1.40001
1.40001
1.40001
1.40001
1.40001
1.40001
1.40001
1.40001
1.40001
1.40001
1.40001
1.40001
1.40001
1.40001
1.40001
1.40001
1.40001
1.40001
1.40001
1.40001
1.40001
1.40001
1.40001
1.40001
1.40001
1.40001
1.40001
1.40001
1.40001
1.40001
1.40001
1.40001
1.40001
1.40001
1.40001
1.40001
1.40001
1.40001
1.40001
1.40001
1.40001
1.40001
1.40001
1.40001
1.40001
1.40001
1.40001
1.40001
1.40001
1.40001
1.40001
1.40001
3.64818
5.42542
5.54664
5.58505
5.62328
5.64812
5.64701
5.63022
5.61583
5.61534
5.63654
5.6647
5.67853
5.66864
5.6425
5.62024
5.62037
5.64406
5.69294
5.74499
5.77922
5.79303
5.78898
5.7746
5.76466
5.766
5.78553
5.82183
5.8526
5.86257
5.85671
5.83665
5.80525
5.77142
5.74144
5.7293
5.7476
5.78874
5.83228
5.86597
5.88222
5.87937
5.86326
5.83809
5.81137
5.79109
5.78296
5.78451
5.7913
5.7977
5.79642
5.78156
5.75142
5.71018
5.6657
5.62412
5.58728
5.54826
5.50897
5.46324
5.40581
5.33562
5.25897
5.18708
5.12927
5.08728
5.05587
5.02763
4.99769
4.965
4.93435
4.91017
4.89662
1.40001
1.40001
1.40001
1.40001
1.40001
1.40001
1.40001
1.40001
1.40001
1.40001
1.40001
1.40001
1.40001
1.40001
1.40001
1.40001
1.40001
1.40001
1.40001
1.40001
1.40001
1.40001
1.40001
1.40001
1.40001
1.40001
1.40001
1.40001
1.40001
1.40001
1.40001
1.40001
1.40001
1.40001
1.40001
1.40001
1.40001
1.40001
1.40001
1.40001
1.40001
1.40001
1.40001
1.40001
1.40001
1.40001
1.40001
1.40001
1.40001
1.40001
1.40001
1.40001
1.40001
1.40001
1.40001
1.40001
1.40001
1.40001
1.40001
1.40001
1.40001
1.40001
1.40001
1.40001
1.40001
1.40001
1.40001
1.40001
1.40001
1.40001
1.40001
1.40001
1.40001
1.40001
1.40001
1.40001
1.40001
1.40001
1.40001
1.40001
1.40001
1.40001
1.40001
1.40001
1.40001
1.40001
1.40001
1.40001
1.40001
1.40001
1.40001
1.40001
1.40001
1.40001
1.40001
1.40001
1.40001
1.40001
1.40001
1.40001
1.40001
1.40001
1.40001
1.40001
1.40001
1.40001
1.40001
1.40001
1.40001
1.40001
1.40001
1.40001
1.40001
1.40001
1.40001
1.40001
1.40001
1.40001
1.40001
3.58589
5.41116
5.54744
5.58719
5.6249
5.64869
5.64534
5.62633
5.6112
5.61214
5.63404
5.66218
5.67535
5.66435
5.63816
5.61863
5.62151
5.64638
5.69586
5.74773
5.78112
5.79362
5.78818
5.77326
5.76297
5.76459
5.78404
5.82003
5.85087
5.86089
5.85517
5.83515
5.80348
5.76911
5.73893
5.72743
5.74669
5.78863
5.83278
5.86672
5.88296
5.88003
5.86347
5.83778
5.81065
5.79004
5.78161
5.78293
5.78953
5.7958
5.79438
5.77944
5.74951
5.70882
5.66519
5.62437
5.58784
5.54847
5.50854
5.46178
5.40318
5.33198
5.25481
5.18299
5.1257
5.08433
5.05358
5.02594
4.99639
4.964
4.93365
4.90974
4.89684
1.40001
1.40001
1.40001
1.40001
1.40001
1.40001
1.40001
1.40001
1.40001
1.40001
1.40001
1.40001
1.40001
1.40001
1.40001
1.40001
1.40001
1.40001
1.40001
1.40001
1.40001
1.40001
1.40001
1.40001
1.40001
1.40001
1.40001
1.40001
1.40001
1.40001
1.40001
1.40001
1.40001
1.40001
1.40001
1.40001
1.40001
1.40001
1.40001
1.40001
1.40001
1.40001
1.40001
1.40001
1.40001
1.40001
1.40001
1.40001
1.40001
1.40001
1.40001
1.40001
1.40001
1.40001
1.40001
1.40001
1.40001
1.40001
1.40001
1.40001
1.40001
1.40001
1.40001
1.40001
1.40001
1.40001
1.40001
1.40001
1.40001
1.40001
1.40001
1.40001
1.40001
1.40001
1.40001
1.40001
1.40001
1.40001
1.40001
1.40001
1.40001
1.40001
1.40001
1.40001
1.40001
1.40001
1.40001
1.40001
1.40001
1.40001
1.40001
1.40001
1.40001
1.40001
1.40001
1.40001
1.40001
1.40001
1.40001
1.40001
1.40001
1.40001
1.40001
1.40001
1.40001
1.40001
1.40001
1.40001
1.40001
1.40001
1.40001
1.40001
1.40001
1.40001
1.40001
1.40001
1.40001
1.40001
1.40001
3.51385
5.39538
5.54897
5.58962
5.62696
5.64916
5.64255
5.62066
5.60554
5.60869
5.63164
5.65925
5.67136
5.65897
5.63337
5.618
5.62382
5.64964
5.69942
5.75073
5.78273
5.79359
5.78692
5.77185
5.76142
5.76332
5.78243
5.81789
5.84875
5.85894
5.85343
5.83346
5.80146
5.76642
5.73608
5.72538
5.74583
5.7887
5.83353
5.86763
5.88376
5.88068
5.86364
5.83741
5.80985
5.78886
5.78005
5.78107
5.78744
5.79357
5.79204
5.77711
5.74752
5.70759
5.66497
5.62505
5.58897
5.54937
5.50884
5.46115
5.40154
5.32946
5.25171
5.17965
5.12245
5.08146
5.05129
5.02418
4.99493
4.96279
4.93284
4.90928
4.89715
1.40001
1.40001
1.40001
1.40001
1.40001
1.40001
1.40001
1.40001
1.40001
1.40001
1.40001
1.40001
1.40001
1.40001
1.40001
1.40001
1.40001
1.40001
1.40001
1.40001
1.40001
1.40001
1.40001
1.40001
1.40001
1.40001
1.40001
1.40001
1.40001
1.40001
1.40001
1.40001
1.40001
1.40001
1.40001
1.40001
1.40001
1.40001
1.40001
1.40001
1.40001
1.40001
1.40001
1.40001
1.40001
1.40001
1.40001
1.40001
1.40001
1.40001
1.40001
1.40001
1.40001
1.40001
1.40001
1.40001
1.40001
1.40001
1.40001
1.40001
1.40001
1.40001
1.40001
1.40001
1.40001
1.40001
1.40001
1.40001
1.40001
1.40001
1.40001
1.40001
1.40001
1.40001
1.40001
1.40001
1.40001
1.40001
1.40001
1.40001
1.40001
1.40001
1.40001
1.40001
1.40001
1.40001
1.40001
1.40001
1.40001
1.40001
1.40001
1.40001
1.40001
1.40001
1.40001
1.40001
1.40001
1.40001
1.40001
1.40001
1.40001
1.40001
1.40001
1.40001
1.40001
1.40001
1.40001
1.40001
1.40001
1.40001
1.40001
1.40001
1.40001
1.40001
1.40001
1.40001
1.40001
1.40001
1.40001
3.4321
5.37864
5.55119
5.59216
5.62884
5.64849
5.63753
5.61288
5.59943
5.60526
5.62923
5.65568
5.66627
5.65261
5.62887
5.61903
5.62751
5.654
5.70333
5.75345
5.78365
5.79268
5.78531
5.77066
5.76022
5.76229
5.7807
5.81531
5.84617
5.85669
5.85146
5.83155
5.79918
5.76341
5.73303
5.72331
5.74507
5.78891
5.83449
5.86867
5.88457
5.88124
5.86372
5.83695
5.80898
5.78756
5.77827
5.7789
5.78499
5.79093
5.78933
5.77453
5.74545
5.70653
5.66514
5.62629
5.59063
5.55076
5.50954
5.4609
5.40035
5.32744
5.24905
5.17659
5.11932
5.07869
5.04903
5.02233
4.99329
4.96135
4.93188
4.90877
4.89751
1.40001
1.40001
1.40001
1.40001
1.40001
1.40001
1.40001
1.40001
1.40001
1.40001
1.40001
1.40001
1.40001
1.40001
1.40001
1.40001
1.40001
1.40001
1.40001
1.40001
1.40001
1.40001
1.40001
1.40001
1.40001
1.40001
1.40001
1.40001
1.40001
1.40001
1.40001
1.40001
1.40001
1.40001
1.40001
1.40001
1.40001
1.40001
1.40001
1.40001
1.40001
1.40001
1.40001
1.40001
1.40001
1.40001
1.40001
1.40001
1.40001
1.40001
1.40001
1.40001
1.40001
1.40001
1.40001
1.40001
1.40001
1.40001
1.40001
1.40001
1.40001
1.40001
1.40001
1.40001
1.40001
1.40001
1.40001
1.40001
1.40001
1.40001
1.40001
1.40001
1.40001
1.40001
1.40001
1.40001
1.40001
1.40001
1.40001
1.40001
1.40001
1.40001
1.40001
1.40001
1.40001
1.40001
1.40001
1.40001
1.40001
1.40001
1.40001
1.40001
1.40001
1.40001
1.40001
1.40001
1.40001
1.40001
1.40001
1.40001
1.40001
1.40001
1.40001
1.40001
1.40001
1.40001
1.40001
1.40001
1.40001
1.40001
1.40001
1.40001
1.40001
1.40001
1.40001
1.40001
1.40001
1.40001
1.40001
3.34086
5.36116
5.55405
5.595
5.63002
5.64495
5.62922
5.60372
5.59388
5.60213
5.6265
5.65128
5.65992
5.64591
5.62574
5.62193
5.63264
5.65924
5.70702
5.75533
5.78367
5.79094
5.78368
5.76998
5.75954
5.76149
5.77871
5.81216
5.84302
5.85406
5.84923
5.82938
5.7966
5.76008
5.72992
5.72147
5.7445
5.78918
5.8355
5.86974
5.88531
5.88164
5.86361
5.83636
5.80804
5.78619
5.77631
5.77643
5.78215
5.78786
5.78621
5.77163
5.74327
5.70563
5.66573
5.62819
5.59291
5.55271
5.51067
5.46112
5.39972
5.32604
5.24698
5.17406
5.11665
5.07617
5.04685
5.02044
4.9915
4.95972
4.9308
4.90824
4.89792
1.40001
1.40001
1.40001
1.40001
1.40001
1.40001
1.40001
1.40001
1.40001
1.40001
1.40001
1.40001
1.40001
1.40001
1.40001
1.40001
1.40001
1.40001
1.40001
1.40001
1.40001
1.40001
1.40001
1.40001
1.40001
1.40001
1.40001
1.40001
1.40001
1.40001
1.40001
1.40001
1.40001
1.40001
1.40001
1.40001
1.40001
1.40001
1.40001
1.40001
1.40001
1.40001
1.40001
1.40001
1.40001
1.40001
1.40001
1.40001
1.40001
1.40001
1.40001
1.40001
1.40001
1.40001
1.40001
1.40001
1.40001
1.40001
1.40001
1.40001
1.40001
1.40001
1.40001
1.40001
1.40001
1.40001
1.40001
1.40001
1.40001
1.40001
1.40001
1.40001
1.40001
1.40001
1.40001
1.40001
1.40001
1.40001
1.40001
1.40001
1.40001
1.40001
1.40001
1.40001
1.40001
1.40001
1.40001
1.40001
1.40001
1.40001
1.40001
1.40001
1.40001
1.40001
1.40001
1.40001
1.40001
1.40001
1.40001
1.40001
1.40001
1.40001
1.40001
1.40001
1.40001
1.40001
1.40001
1.40001
1.40001
1.40001
1.40001
1.40001
1.40001
1.40001
1.40001
1.40001
1.40001
1.40001
1.40001
3.24077
5.34353
5.55717
5.59816
5.62932
5.63733
5.61758
5.5948
5.58967
5.5993
5.62286
5.64572
5.65248
5.63986
5.62466
5.6264
5.63933
5.66466
5.7099
5.75615
5.78267
5.78861
5.78237
5.76994
5.75935
5.76083
5.77637
5.80835
5.83922
5.85097
5.84665
5.82688
5.7937
5.75646
5.72691
5.72008
5.74424
5.78955
5.83649
5.87071
5.88592
5.88184
5.86327
5.83564
5.80707
5.7848
5.77423
5.77371
5.77891
5.7843
5.78263
5.76837
5.74088
5.7048
5.66664
5.63063
5.59577
5.55531
5.51241
5.46191
5.39966
5.32527
5.24555
5.1721
5.11439
5.07388
5.04473
5.01849
4.98959
4.95794
4.92965
4.90769
4.89834
1.40001
1.40001
1.40001
1.40001
1.40001
1.40001
1.40001
1.40001
1.40001
1.40001
1.40001
1.40001
1.40001
1.40001
1.40001
1.40001
1.40001
1.40001
1.40001
1.40001
1.40001
1.40001
1.40001
1.40001
1.40001
1.40001
1.40001
1.40001
1.40001
1.40001
1.40001
1.40001
1.40001
1.40001
1.40001
1.40001
1.40001
1.40001
1.40001
1.40001
1.40001
1.40001
1.40001
1.40001
1.40001
1.40001
1.40001
1.40001
1.40001
1.40001
1.40001
1.40001
1.40001
1.40001
1.40001
1.40001
1.40001
1.40001
1.40001
1.40001
1.40001
1.40001
1.40001
1.40001
1.40001
1.40001
1.40001
1.40001
1.40001
1.40001
1.40001
1.40001
1.40001
1.40001
1.40001
1.40001
1.40001
1.40001
1.40001
1.40001
1.40001
1.40001
1.40001
1.40001
1.40001
1.40001
1.40001
1.40001
1.40001
1.40001
1.40001
1.40001
1.40001
1.40001
1.40001
1.40001
1.40001
1.40001
1.40001
1.40001
1.40001
1.40001
1.40001
1.40001
1.40001
1.40001
1.40001
1.40001
1.40001
1.40001
1.40001
1.40001
1.40001
1.40001
1.40001
1.40001
1.40001
1.40001
1.40001
3.13288
5.32674
5.55977
5.60013
5.6256
5.62588
5.60359
5.58758
5.58678
5.5965
5.6178
5.63893
5.64471
5.635
5.62678
5.63261
5.64653
5.66955
5.71162
5.75565
5.78067
5.78616
5.78171
5.77051
5.75945
5.76012
5.7736
5.80385
5.83476
5.84733
5.84363
5.82399
5.79041
5.75262
5.72415
5.71922
5.74435
5.79011
5.83745
5.87147
5.88628
5.88177
5.86266
5.83476
5.80609
5.78345
5.77208
5.77074
5.77527
5.78023
5.77856
5.76466
5.73821
5.70393
5.66774
5.63346
5.59906
5.55838
5.51462
5.46313
5.4
5.32492
5.24461
5.17058
5.11244
5.07174
5.04261
5.01644
4.98754
4.95604
4.92843
4.90713
4.89877
1.40001
1.40001
1.40001
1.40001
1.40001
1.40001
1.40001
1.40001
1.40001
1.40001
1.40001
1.40001
1.40001
1.40001
1.40001
1.40001
1.40001
1.40001
1.40001
1.40001
1.40001
1.40001
1.40001
1.40001
1.40001
1.40001
1.40001
1.40001
1.40001
1.40001
1.40001
1.40001
1.40001
1.40001
1.40001
1.40001
1.40001
1.40001
1.40001
1.40001
1.40001
1.40001
1.40001
1.40001
1.40001
1.40001
1.40001
1.40001
1.40001
1.40001
1.40001
1.40001
1.40001
1.40001
1.40001
1.40001
1.40001
1.40001
1.40001
1.40001
1.40001
1.40001
1.40001
1.40001
1.40001
1.40001
1.40001
1.40001
1.40001
1.40001
1.40001
1.40001
1.40001
1.40001
1.40001
1.40001
1.40001
1.40001
1.40001
1.40001
1.40001
1.40001
1.40001
1.40001
1.40001
1.40001
1.40001
1.40001
1.40001
1.40001
1.40001
1.40001
1.40001
1.40001
1.40001
1.40001
1.40001
1.40001
1.40001
1.40001
1.40001
1.40001
1.40001
1.40001
1.40001
1.40001
1.40001
1.40001
1.40001
1.40001
1.40001
1.40001
1.40001
1.40001
1.40001
1.40001
1.40001
1.40001
1.40001
3.01864
5.31072
5.56132
5.59803
5.61816
5.61177
5.58973
5.58234
5.58437
5.59355
5.61097
5.63115
5.63782
5.6318
5.6315
5.64077
5.65355
5.67363
5.71205
5.75366
5.778
5.78414
5.78177
5.77158
5.75958
5.75916
5.77037
5.79867
5.82963
5.84316
5.84013
5.8206
5.78664
5.74857
5.72187
5.71898
5.74492
5.79084
5.83833
5.87197
5.8863
5.88133
5.86176
5.83376
5.80516
5.78217
5.76989
5.76754
5.77123
5.77567
5.77399
5.76047
5.7352
5.703
5.66903
5.63657
5.60261
5.56176
5.51708
5.46458
5.40058
5.32485
5.24396
5.16937
5.11069
5.06966
5.04042
5.01423
4.98533
4.95403
4.92717
4.9066
4.89926
1.40001
1.40001
1.40001
1.40001
1.40001
1.40001
1.40001
1.40001
1.40001
1.40001
1.40001
1.40001
1.40001
1.40001
1.40001
1.40001
1.40001
1.40001
1.40001
1.40001
1.40001
1.40001
1.40001
1.40001
1.40001
1.40001
1.40001
1.40001
1.40001
1.40001
1.40001
1.40001
1.40001
1.40001
1.40001
1.40001
1.40001
1.40001
1.40001
1.40001
1.40001
1.40001
1.40001
1.40001
1.40001
1.40001
1.40001
1.40001
1.40001
1.40001
1.40001
1.40001
1.40001
1.40001
1.40001
1.40001
1.40001
1.40001
1.40001
1.40001
1.40001
1.40001
1.40001
1.40001
1.40001
1.40001
1.40001
1.40001
1.40001
1.40001
1.40001
1.40001
1.40001
1.40001
1.40001
1.40001
1.40001
1.40001
1.40001
1.40001
1.40001
1.40001
1.40001
1.40001
1.40001
1.40001
1.40001
1.40001
1.40001
1.40001
1.40001
1.40001
1.40001
1.40001
1.40001
1.40001
1.40001
1.40001
1.40001
1.40001
1.40001
1.40001
1.40001
1.40001
1.40001
1.40001
1.40001
1.40001
1.40001
1.40001
1.40001
1.40001
1.40001
1.40001
1.40001
1.40001
1.40001
1.40001
1.40001
2.89928
5.29248
5.56241
5.59086
5.60609
5.59629
5.57863
5.57813
5.58182
5.58993
5.60273
5.62303
5.63258
5.63137
5.6378
5.64974
5.6601
5.6766
5.71109
5.75036
5.77499
5.78293
5.78248
5.77281
5.75957
5.75775
5.7666
5.79287
5.82389
5.83849
5.83617
5.81668
5.78231
5.74447
5.7204
5.71949
5.74591
5.79158
5.83895
5.8721
5.8859
5.88049
5.86058
5.83268
5.80431
5.78096
5.76763
5.76407
5.76679
5.77062
5.76891
5.75581
5.73189
5.702
5.67048
5.63985
5.60633
5.56534
5.51965
5.46609
5.40128
5.32496
5.24352
5.16834
5.10905
5.06754
5.03804
5.01177
4.9829
4.95192
4.92589
4.90611
4.89989
1.40001
1.40001
1.40001
1.40001
1.40001
1.40001
1.40001
1.40001
1.40001
1.40001
1.40001
1.40001
1.40001
1.40001
1.40001
1.40001
1.40001
1.40001
1.40001
1.40001
1.40001
1.40001
1.40001
1.40001
1.40001
1.40001
1.40001
1.40001
1.40001
1.40001
1.40001
1.40001
1.40001
1.40001
1.40001
1.40001
1.40001
1.40001
1.40001
1.40001
1.40001
1.40001
1.40001
1.40001
1.40001
1.40001
1.40001
1.40001
1.40001
1.40001
1.40001
1.40001
1.40001
1.40001
1.40001
1.40001
1.40001
1.40001
1.40001
1.40001
1.40001
1.40001
1.40001
1.40001
1.40001
1.40001
1.40001
1.40001
1.40001
1.40001
1.40001
1.40001
1.40001
1.40001
1.40001
1.40001
1.40001
1.40001
1.40001
1.40001
1.40001
1.40001
1.40001
1.40001
1.40001
1.40001
1.40001
1.40001
1.40001
1.40001
1.40001
1.40001
1.40001
1.40001
1.40001
1.40001
1.40001
1.40001
1.40001
1.40001
1.40001
1.40001
1.40001
1.40001
1.40001
1.40001
1.40001
1.40001
1.40001
1.40001
1.40001
1.40001
1.40001
1.40001
1.40001
1.40001
1.40001
1.40001
1.40001
2.77449
5.26643
5.56417
5.57968
5.59149
5.58144
5.57148
5.57376
5.57842
5.58505
5.59442
5.616
5.62902
5.63458
5.64593
5.65798
5.6658
5.67845
5.70867
5.74615
5.77207
5.7825
5.78361
5.77396
5.75923
5.75568
5.76219
5.78652
5.81762
5.83342
5.83181
5.81225
5.77746
5.74058
5.71993
5.72072
5.74716
5.79215
5.83918
5.87177
5.88499
5.87921
5.85919
5.83164
5.80357
5.77978
5.76524
5.76031
5.76194
5.76507
5.7633
5.75074
5.72836
5.701
5.67205
5.64325
5.61016
5.569
5.52221
5.46755
5.40196
5.32513
5.24321
5.16743
5.10742
5.06527
5.03537
5.00894
4.98018
4.94966
4.92459
4.9057
4.90073
1.40001
1.40001
1.40001
1.40001
1.40001
1.40001
1.40001
1.40001
1.40001
1.40001
1.40001
1.40001
1.40001
1.40001
1.40001
1.40001
1.40001
1.40001
1.40001
1.40001
1.40001
1.40001
1.40001
1.40001
1.40001
1.40001
1.40001
1.40001
1.40001
1.40001
1.40001
1.40001
1.40001
1.40001
1.40001
1.40001
1.40001
1.40001
1.40001
1.40001
1.40001
1.40001
1.40001
1.40001
1.40001
1.40001
1.40001
1.40001
1.40001
1.40001
1.40001
1.40001
1.40001
1.40001
1.40001
1.40001
1.40001
1.40001
1.40001
1.40001
1.40001
1.40001
1.40001
1.40001
1.40001
1.40001
1.40001
1.40001
1.40001
1.40001
1.40001
1.40001
1.40001
1.40001
1.40001
1.40001
1.40001
1.40001
1.40001
1.40001
1.40001
1.40001
1.40001
1.40001
1.40001
1.40001
1.40001
1.40001
1.40001
1.40001
1.40001
1.40001
1.40001
1.40001
1.40001
1.40001
1.40001
1.40001
1.40001
1.40001
1.40001
1.40001
1.40001
1.40001
1.40001
1.40001
1.40001
1.40001
1.40001
1.40001
1.40001
1.40001
1.40001
1.40001
1.40001
1.40001
1.40001
1.40001
1.40001
2.64141
5.2262
5.56434
5.56912
5.57747
5.5686
5.56666
5.56904
5.5735
5.57889
5.588
5.61126
5.6273
5.64081
5.65531
5.66534
5.67033
5.679
5.70519
5.74168
5.76962
5.78261
5.78477
5.77483
5.75845
5.75283
5.75701
5.7796
5.81093
5.82805
5.82706
5.80732
5.77229
5.73741
5.72062
5.72258
5.74854
5.79241
5.83883
5.87084
5.88349
5.8775
5.85769
5.83074
5.80298
5.77856
5.76264
5.75615
5.75666
5.75908
5.75718
5.74534
5.72472
5.7001
5.67376
5.6467
5.61401
5.5726
5.52466
5.46886
5.40252
5.32526
5.24297
5.16657
5.10572
5.06274
5.03227
5.00562
4.97707
4.94722
4.92328
4.90541
4.90184
1.40001
1.40001
1.40001
1.40001
1.40001
1.40001
1.40001
1.40001
1.40001
1.40001
1.40001
1.40001
1.40001
1.40001
1.40001
1.40001
1.40001
1.40001
1.40001
1.40001
1.40001
1.40001
1.40001
1.40001
1.40001
1.40001
1.40001
1.40001
1.40001
1.40001
1.40001
1.40001
1.40001
1.40001
1.40001
1.40001
1.40001
1.40001
1.40001
1.40001
1.40001
1.40001
1.40001
1.40001
1.40001
1.40001
1.40001
1.40001
1.40001
1.40001
1.40001
1.40001
1.40001
1.40001
1.40001
1.40001
1.40001
1.40001
1.40001
1.40001
1.40001
1.40001
1.40001
1.40001
1.40001
1.40001
1.40001
1.40001
1.40001
1.40001
1.40001
1.40001
1.40001
1.40001
1.40001
1.40001
1.40001
1.40001
1.40001
1.40001
1.40001
1.40001
1.40001
1.40001
1.40001
1.40001
1.40001
1.40001
1.40001
1.40001
1.40001
1.40001
1.40001
1.40001
1.40001
1.40001
1.40001
1.40001
1.40001
1.40001
1.40001
1.40001
1.40001
1.40001
1.40001
1.40001
1.40001
1.40001
1.40001
1.40001
1.40001
1.40001
1.40001
1.40001
1.40001
1.40001
1.40001
1.40001
1.40001
2.49561
5.16738
5.56419
5.56122
5.56659
5.55804
5.56119
5.56408
5.56779
5.57276
5.58409
5.60894
5.62877
5.6491
5.66427
5.67187
5.67301
5.67813
5.70127
5.73754
5.76774
5.7829
5.78565
5.77523
5.75716
5.74909
5.75099
5.7721
5.80389
5.82239
5.82182
5.80193
5.76713
5.73557
5.72242
5.72495
5.74997
5.79222
5.83771
5.86919
5.88131
5.87539
5.85624
5.83008
5.80252
5.77726
5.75969
5.75149
5.75089
5.75267
5.75064
5.73972
5.72107
5.69941
5.67572
5.6502
5.61778
5.57602
5.52691
5.46995
5.40286
5.32529
5.24272
5.16574
5.10395
5.05992
5.02867
5.00172
4.97349
4.9446
4.92202
4.90532
4.9031
1.40001
1.40001
1.40001
1.40001
1.40001
1.40001
1.40001
1.40001
1.40001
1.40001
1.40001
1.40001
1.40001
1.40001
1.40001
1.40001
1.40001
1.40001
1.40001
1.40001
1.40001
1.40001
1.40001
1.40001
1.40001
1.40001
1.40001
1.40001
1.40001
1.40001
1.40001
1.40001
1.40001
1.40001
1.40001
1.40001
1.40001
1.40001
1.40001
1.40001
1.40001
1.40001
1.40001
1.40001
1.40001
1.40001
1.40001
1.40001
1.40001
1.40001
1.40001
1.40001
1.40001
1.40001
1.40001
1.40001
1.40001
1.40001
1.40001
1.40001
1.40001
1.40001
1.40001
1.40001
1.40001
1.40001
1.40001
1.40001
1.40001
1.40001
1.40001
1.40001
1.40001
1.40001
1.40001
1.40001
1.40001
1.40001
1.40001
1.40001
1.40001
1.40001
1.40001
1.40001
1.40001
1.40001
1.40001
1.40001
1.40001
1.40001
1.40001
1.40001
1.40001
1.40001
1.40001
1.40001
1.40001
1.40001
1.40001
1.40001
1.40001
1.40001
1.40001
1.40001
1.40001
1.40001
1.40001
1.40001
1.40001
1.40001
1.40001
1.40001
1.40001
1.40001
1.40001
1.40001
1.40001
1.40001
1.40001
2.33553
5.09176
5.56788
5.55579
5.55455
5.54772
5.55467
5.56013
5.56338
5.56854
5.58265
5.60905
5.63429
5.65861
5.67171
5.67621
5.67385
5.67638
5.6976
5.73411
5.76624
5.78308
5.78608
5.77497
5.75526
5.74441
5.74411
5.76402
5.79645
5.81638
5.81601
5.79614
5.76244
5.73562
5.72505
5.72787
5.75139
5.79142
5.83565
5.86667
5.87837
5.87298
5.85499
5.82973
5.80217
5.77579
5.75634
5.74628
5.74453
5.74577
5.74379
5.73398
5.71756
5.69904
5.67801
5.65366
5.62144
5.57919
5.52888
5.4707
5.40292
5.32515
5.24242
5.16491
5.10208
5.0568
5.02454
4.99717
4.9694
4.94177
4.92082
4.90543
4.90445
1.40001
1.40001
1.40001
1.40001
1.40001
1.40001
1.40001
1.40001
1.40001
1.40001
1.40001
1.40001
1.40001
1.40001
1.40001
1.40001
1.40001
1.40001
1.40001
1.40001
1.40001
1.40001
1.40001
1.40001
1.40001
1.40001
1.40001
1.40001
1.40001
1.40001
1.40001
1.40001
1.40001
1.40001
1.40001
1.40001
1.40001
1.40001
1.40001
1.40001
1.40001
1.40001
1.40001
1.40001
1.40001
1.40001
1.40001
1.40001
1.40001
1.40001
1.40001
1.40001
1.40001
1.40001
1.40001
1.40001
1.40001
1.40001
1.40001
1.40001
1.40001
1.40001
1.40001
1.40001
1.40001
1.40001
1.40001
1.40001
1.40001
1.40001
1.40001
1.40001
1.40001
1.40001
1.40001
1.40001
1.40001
1.40001
1.40001
1.40001
1.40001
1.40001
1.40001
1.40001
1.40001
1.40001
1.40001
1.40001
1.40001
1.40001
1.40001
1.40001
1.40001
1.40001
1.40001
1.40001
1.40001
1.40001
1.40001
1.40001
1.40001
1.40001
1.40001
1.40001
1.40001
1.40001
1.40001
1.40001
1.40001
1.40001
1.40001
1.40001
1.40001
1.40001
1.40001
1.40001
1.40001
1.40001
1.40001
2.16824
4.99781
5.56994
5.54914
5.5377
5.5387
5.54917
5.55813
5.56158
5.56788
5.58394
5.6123
5.64243
5.6673
5.67708
5.67807
5.67322
5.67454
5.69463
5.7313
5.7648
5.78291
5.78598
5.7739
5.75251
5.73886
5.7366
5.75538
5.78855
5.80987
5.8095
5.79012
5.75877
5.73772
5.72839
5.73141
5.75271
5.78991
5.83256
5.86316
5.87472
5.87041
5.85403
5.82966
5.80187
5.77409
5.75253
5.74053
5.73756
5.73834
5.73667
5.72823
5.71431
5.69906
5.68062
5.65714
5.62495
5.58211
5.53052
5.47103
5.40262
5.32476
5.24201
5.16404
5.10012
5.05342
5.01992
4.99198
4.96479
4.93874
4.91972
4.90573
4.90584
1.40001
1.40001
1.40001
1.40001
1.40001
1.40001
1.40001
1.40001
1.40001
1.40001
1.40001
1.40001
1.40001
1.40001
1.40001
1.40001
1.40001
1.40001
1.40001
1.40001
1.40001
1.40001
1.40001
1.40001
1.40001
1.40001
1.40001
1.40001
1.40001
1.40001
1.40001
1.40001
1.40001
1.40001
1.40001