/*--------------------------------*- C++ -*----------------------------------*\
  =========                 |
  \\      /  F ield         | OpenFOAM: The Open Source CFD Toolbox
   \\    /   O peration     | Website:  https://openfoam.org
    \\  /    A nd           | Version:  7
     \\/     M anipulation  |
\*---------------------------------------------------------------------------*/
FoamFile
{
    version     2.0;
    format      ascii;
    class       volScalarField;
    location    "0.6";
    object      T;
}
// * * * * * * * * * * * * * * * * * * * * * * * * * * * * * * * * * * * * * //

dimensions      [0 0 0 1 0 0 0];

internalField   nonuniform List<scalar> 
258048
(
1
1
1
1
1
1
1
1
1
1
1
1
1
1
1
1
1
1
1
1
1
1
1
1
1
1
1
1
1
1
1
1
1
1
1
1
1
1
1
1
1
1
1
1
1
1
1
1
1
1
1
1
1
1
1
1
1
1
1
1
1
1
1
1
1
1
1
1
1
1
1
1
1
1
1
1
1
1
1
1
1
1
1
1
1
1
1
1
1
1
1
1
1
1
1
1
1
1
1
1
1
1
1
1
1
1
1
1
1
1
1
1
1
1
1
1
1
1
1
2.26996
2.83315
2.83457
2.82897
2.8253
2.82638
2.8324
2.8383
2.84172
2.84191
2.8439
2.84556
2.84663
2.84622
2.84413
2.84094
2.83996
2.84382
2.85276
2.86332
2.87135
2.87611
2.87739
2.87561
2.87503
2.87635
2.88142
2.89008
2.89797
2.90239
2.90327
2.90063
2.89662
2.89318
2.89141
2.89212
2.89789
2.90988
2.92244
2.93314
2.94198
2.94775
2.95016
2.95125
2.95253
2.95559
2.96174
2.9709
2.98244
2.995
3.00688
3.01701
3.02608
3.03471
3.04394
3.05546
3.07082
3.09114
3.11952
3.15861
3.20916
3.26961
3.3345
3.3953
3.44414
3.47761
3.49747
3.50756
3.51125
3.5114
3.51013
3.50733
3.50443
1
1
1
1
1
1
1
1
1
1
1
1
1
1
1
1
1
1
1
1
1
1
1
1
1
1
1
1
1
1
1
1
1
1
1
1
1
1
1
1
1
1
1
1
1
1
1
1
1
1
1
1
1
1
1
1
1
1
1
1
1
1
1
1
1
1
1
1
1
1
1
1
1
1
1
1
1
1
1
1
1
1
1
1
1
1
1
1
1
1
1
1
1
1
1
1
1
1
1
1
1
1
1
1
1
1
1
1
1
1
1
1
1
1
1
1
1
1
1
2.26809
2.832
2.83406
2.82878
2.82601
2.82694
2.83279
2.83859
2.84173
2.84177
2.84377
2.84542
2.8465
2.84612
2.84403
2.84088
2.83997
2.84389
2.85288
2.86347
2.87149
2.87622
2.87744
2.87561
2.87498
2.87629
2.88136
2.89003
2.89793
2.90235
2.90322
2.90058
2.89656
2.89311
2.89132
2.89204
2.89787
2.90987
2.92245
2.93317
2.94202
2.9478
2.95019
2.95127
2.95254
2.9556
2.96174
2.97092
2.98247
2.99503
3.00688
3.017
3.02609
3.03475
3.04404
3.05561
3.07105
3.09144
3.11995
3.15915
3.20979
3.27028
3.3351
3.39575
3.44439
3.47771
3.49749
3.50754
3.51122
3.51138
3.51011
3.50732
3.50442
1
1
1
1
1
1
1
1
1
1
1
1
1
1
1
1
1
1
1
1
1
1
1
1
1
1
1
1
1
1
1
1
1
1
1
1
1
1
1
1
1
1
1
1
1
1
1
1
1
1
1
1
1
1
1
1
1
1
1
1
1
1
1
1
1
1
1
1
1
1
1
1
1
1
1
1
1
1
1
1
1
1
1
1
1
1
1
1
1
1
1
1
1
1
1
1
1
1
1
1
1
1
1
1
1
1
1
1
1
1
1
1
1
1
1
1
1
1
1
2.26608
2.83288
2.83295
2.82817
2.82626
2.8275
2.8334
2.83904
2.84164
2.84154
2.84353
2.84524
2.84639
2.84602
2.84389
2.84071
2.83991
2.84393
2.85302
2.86368
2.87173
2.87641
2.87753
2.87563
2.8749
2.87618
2.88127
2.88994
2.89785
2.90228
2.90315
2.90051
2.89649
2.893
2.89116
2.89188
2.89778
2.90983
2.92244
2.9332
2.94208
2.94787
2.95022
2.95129
2.95256
2.95559
2.96173
2.97093
2.9825
2.99507
3.00691
3.01702
3.02617
3.03489
3.04428
3.05598
3.0716
3.09221
3.12106
3.16063
3.21163
3.2723
3.337
3.39723
3.44531
3.47815
3.49763
3.50756
3.51119
3.51135
3.51006
3.50729
3.5044
1
1
1
1
1
1
1
1
1
1
1
1
1
1
1
1
1
1
1
1
1
1
1
1
1
1
1
1
1
1
1
1
1
1
1
1
1
1
1
1
1
1
1
1
1
1
1
1
1
1
1
1
1
1
1
1
1
1
1
1
1
1
1
1
1
1
1
1
1
1
1
1
1
1
1
1
1
1
1
1
1
1
1
1
1
1
1
1
1
1
1
1
1
1
1
1
1
1
1
1
1
1
1
1
1
1
1
1
1
1
1
1
1
1
1
1
1
1
1
2.25861
2.83316
2.83265
2.8275
2.82616
2.82799
2.83422
2.83956
2.84145
2.84111
2.84304
2.84485
2.84616
2.84582
2.84366
2.84051
2.8399
2.84403
2.85328
2.86404
2.87211
2.87669
2.8776
2.87563
2.87476
2.87602
2.88113
2.8898
2.89773
2.90216
2.90303
2.90038
2.89635
2.89282
2.89091
2.89163
2.89765
2.90976
2.92244
2.93324
2.94214
2.94793
2.95024
2.95129
2.95253
2.95554
2.96168
2.9709
2.98249
2.99508
3.0069
3.01701
3.02622
3.03502
3.04457
3.05644
3.07233
3.09327
3.12267
3.16284
3.21444
3.27548
3.34008
3.39969
3.44688
3.47893
3.4979
3.50758
3.51114
3.51128
3.50999
3.50724
3.5044
1
1
1
1
1
1
1
1
1
1
1
1
1
1
1
1
1
1
1
1
1
1
1
1
1
1
1
1
1
1
1
1
1
1
1
1
1
1
1
1
1
1
1
1
1
1
1
1
1
1
1
1
1
1
1
1
1
1
1
1
1
1
1
1
1
1
1
1
1
1
1
1
1
1
1
1
1
1
1
1
1
1
1
1
1
1
1
1
1
1
1
1
1
1
1
1
1
1
1
1
1
1
1
1
1
1
1
1
1
1
1
1
1
1
1
1
1
1
1
2.24735
2.83344
2.83242
2.82681
2.82583
2.82826
2.8348
2.8398
2.84108
2.84051
2.84235
2.84432
2.84586
2.84554
2.84333
2.84026
2.83993
2.8442
2.85362
2.86448
2.87256
2.877
2.87762
2.8756
2.87457
2.87581
2.88094
2.8896
2.89754
2.90196
2.90283
2.90019
2.89614
2.89256
2.89055
2.89128
2.89746
2.90967
2.92241
2.93326
2.94217
2.94796
2.9502
2.95122
2.95242
2.95538
2.9615
2.97075
2.98236
2.99495
3.00676
3.01686
3.02613
3.03503
3.04472
3.05679
3.07297
3.09426
3.12423
3.16506
3.21736
3.27886
3.34341
3.40239
3.44862
3.47977
3.49816
3.50757
3.51105
3.51118
3.50988
3.50718
3.50443
1
1
1
1
1
1
1
1
1
1
1
1
1
1
1
1
1
1
1
1
1
1
1
1
1
1
1
1
1
1
1
1
1
1
1
1
1
1
1
1
1
1
1
1
1
1
1
1
1
1
1
1
1
1
1
1
1
1
1
1
1
1
1
1
1
1
1
1
1
1
1
1
1
1
1
1
1
1
1
1
1
1
1
1
1
1
1
1
1
1
1
1
1
1
1
1
1
1
1
1
1
1
1
1
1
1
1
1
1
1
1
1
1
1
1
1
1
1
1
2.23373
2.83346
2.83197
2.82588
2.82527
2.82837
2.83517
2.8398
2.8405
2.83972
2.84141
2.84358
2.84536
2.84505
2.84283
2.83995
2.84002
2.84446
2.85405
2.86499
2.87305
2.87726
2.87753
2.87549
2.87432
2.87556
2.8807
2.88933
2.89726
2.90168
2.90256
2.89992
2.89586
2.89221
2.89009
2.89084
2.89722
2.90957
2.92239
2.93327
2.94218
2.94795
2.9501
2.95106
2.95219
2.95509
2.96119
2.97045
2.98205
2.99462
3.00639
3.0165
3.02586
3.03487
3.04472
3.05699
3.07343
3.09496
3.12535
3.16667
3.21952
3.2814
3.34594
3.40443
3.4499
3.48033
3.49827
3.50747
3.51088
3.51101
3.50973
3.5071
3.5045
1
1
1
1
1
1
1
1
1
1
1
1
1
1
1
1
1
1
1
1
1
1
1
1
1
1
1
1
1
1
1
1
1
1
1
1
1
1
1
1
1
1
1
1
1
1
1
1
1
1
1
1
1
1
1
1
1
1
1
1
1
1
1
1
1
1
1
1
1
1
1
1
1
1
1
1
1
1
1
1
1
1
1
1
1
1
1
1
1
1
1
1
1
1
1
1
1
1
1
1
1
1
1
1
1
1
1
1
1
1
1
1
1
1
1
1
1
1
1
2.21728
2.83352
2.83147
2.8247
2.82443
2.82834
2.83527
2.83943
2.83961
2.83874
2.84027
2.84264
2.84466
2.84435
2.84217
2.83967
2.84022
2.84481
2.85454
2.86552
2.87348
2.8774
2.8773
2.87526
2.87401
2.87527
2.88041
2.88898
2.8969
2.9013
2.9022
2.89957
2.8955
2.89178
2.88952
2.8903
2.89696
2.90947
2.92236
2.93326
2.94214
2.94787
2.94992
2.9508
2.95185
2.95466
2.96072
2.96997
2.98155
2.99405
3.00578
3.0159
3.02536
3.03452
3.04458
3.05706
3.07369
3.09536
3.12594
3.1675
3.22062
3.2827
3.34722
3.40542
3.45043
3.4805
3.49821
3.50727
3.51064
3.51078
3.50955
3.507
3.5046
1
1
1
1
1
1
1
1
1
1
1
1
1
1
1
1
1
1
1
1
1
1
1
1
1
1
1
1
1
1
1
1
1
1
1
1
1
1
1
1
1
1
1
1
1
1
1
1
1
1
1
1
1
1
1
1
1
1
1
1
1
1
1
1
1
1
1
1
1
1
1
1
1
1
1
1
1
1
1
1
1
1
1
1
1
1
1
1
1
1
1
1
1
1
1
1
1
1
1
1
1
1
1
1
1
1
1
1
1
1
1
1
1
1
1
1
1
1
1
2.19771
2.8335
2.8308
2.82323
2.82338
2.82826
2.83513
2.8387
2.83847
2.83762
2.83902
2.84149
2.8437
2.8434
2.84139
2.83954
2.8406
2.84526
2.85506
2.86602
2.87377
2.87736
2.87697
2.87493
2.87366
2.87497
2.88006
2.88852
2.89642
2.90081
2.90174
2.89913
2.89505
2.89125
2.88885
2.88967
2.89668
2.90938
2.92235
2.93324
2.94207
2.94774
2.94969
2.95048
2.95143
2.95413
2.96013
2.96936
2.98088
2.99328
3.00493
3.01509
3.02464
3.03397
3.04426
3.05694
3.07372
3.09548
3.12612
3.16774
3.22093
3.28306
3.34757
3.40564
3.45046
3.48037
3.49795
3.50694
3.5103
3.51047
3.50933
3.50689
3.5047
1
1
1
1
1
1
1
1
1
1
1
1
1
1
1
1
1
1
1
1
1
1
1
1
1
1
1
1
1
1
1
1
1
1
1
1
1
1
1
1
1
1
1
1
1
1
1
1
1
1
1
1
1
1
1
1
1
1
1
1
1
1
1
1
1
1
1
1
1
1
1
1
1
1
1
1
1
1
1
1
1
1
1
1
1
1
1
1
1
1
1
1
1
1
1
1
1
1
1
1
1
1
1
1
1
1
1
1
1
1
1
1
1
1
1
1
1
1
1
2.17459
2.83326
2.82985
2.82149
2.82224
2.82814
2.83475
2.83769
2.83714
2.83641
2.83765
2.84009
2.84247
2.84229
2.84065
2.8397
2.84118
2.84583
2.85559
2.86641
2.87385
2.87707
2.87654
2.87455
2.87331
2.87466
2.87962
2.88794
2.89581
2.90022
2.90118
2.89858
2.89451
2.89062
2.8881
2.88898
2.89638
2.90929
2.92235
2.93322
2.94198
2.94755
2.9494
2.95011
2.95095
2.95353
2.95946
2.96864
2.98007
2.99235
3.0039
3.01408
3.02372
3.03323
3.04375
3.05666
3.07356
3.09534
3.12597
3.16752
3.2207
3.28283
3.34734
3.40538
3.45013
3.47993
3.49747
3.50647
3.50986
3.51007
3.50905
3.50674
3.50481
1
1
1
1
1
1
1
1
1
1
1
1
1
1
1
1
1
1
1
1
1
1
1
1
1
1
1
1
1
1
1
1
1
1
1
1
1
1
1
1
1
1
1
1
1
1
1
1
1
1
1
1
1
1
1
1
1
1
1
1
1
1
1
1
1
1
1
1
1
1
1
1
1
1
1
1
1
1
1
1
1
1
1
1
1
1
1
1
1
1
1
1
1
1
1
1
1
1
1
1
1
1
1
1
1
1
1
1
1
1
1
1
1
1
1
1
1
1
1
2.14746
2.83253
2.82849
2.81953
2.82102
2.82784
2.83409
2.83654
2.83582
2.83511
2.83612
2.83847
2.84101
2.84119
2.84014
2.84017
2.84197
2.84653
2.85605
2.86659
2.87369
2.87657
2.87605
2.8742
2.87298
2.87434
2.87909
2.88721
2.89507
2.89952
2.90051
2.89792
2.89385
2.88989
2.8873
2.8883
2.8961
2.90917
2.92233
2.93318
2.94184
2.94732
2.94907
2.94969
2.95042
2.95288
2.95872
2.96785
2.97915
2.99127
3.00271
3.01291
3.02265
3.03235
3.04309
3.05622
3.07318
3.09491
3.1254
3.16678
3.21981
3.28191
3.34646
3.40454
3.44933
3.47917
3.49679
3.50588
3.50934
3.50961
3.50874
3.50659
3.50493
1
1
1
1
1
1
1
1
1
1
1
1
1
1
1
1
1
1
1
1
1
1
1
1
1
1
1
1
1
1
1
1
1
1
1
1
1
1
1
1
1
1
1
1
1
1
1
1
1
1
1
1
1
1
1
1
1
1
1
1
1
1
1
1
1
1
1
1
1
1
1
1
1
1
1
1
1
1
1
1
1
1
1
1
1
1
1
1
1
1
1
1
1
1
1
1
1
1
1
1
1
1
1
1
1
1
1
1
1
1
1
1
1
1
1
1
1
1
1
2.116
2.83117
2.82649
2.81739
2.81953
2.82709
2.83319
2.83547
2.83465
2.83368
2.83433
2.83664
2.8394
2.84024
2.84003
2.84098
2.84292
2.84725
2.85636
2.86655
2.87328
2.87592
2.8756
2.8739
2.87268
2.87401
2.87844
2.88632
2.89419
2.89871
2.89974
2.89716
2.89308
2.88908
2.88649
2.88766
2.89584
2.90902
2.92226
2.9331
2.94166
2.94702
2.94869
2.94922
2.94986
2.95221
2.95796
2.96698
2.97813
2.99006
3.00138
3.01161
3.02147
3.03138
3.04236
3.05569
3.07264
3.09422
3.1244
3.16545
3.2182
3.2802
3.3448
3.40306
3.44806
3.47813
3.49596
3.50519
3.50876
3.50909
3.50839
3.50641
3.50503
1
1
1
1
1
1
1
1
1
1
1
1
1
1
1
1
1
1
1
1
1
1
1
1
1
1
1
1
1
1
1
1
1
1
1
1
1
1
1
1
1
1
1
1
1
1
1
1
1
1
1
1
1
1
1
1
1
1
1
1
1
1
1
1
1
1
1
1
1
1
1
1
1
1
1
1
1
1
1
1
1
1
1
1
1
1
1
1
1
1
1
1
1
1
1
1
1
1
1
1
1
1
1
1
1
1
1
1
1
1
1
1
1
1
1
1
1
1
1
2.08016
2.82915
2.82345
2.81485
2.81771
2.82586
2.83222
2.83461
2.83364
2.832
2.83217
2.83468
2.83785
2.8396
2.84052
2.84197
2.84387
2.84789
2.85649
2.86624
2.87268
2.87522
2.87525
2.87366
2.8724
2.87365
2.87766
2.88526
2.89316
2.89778
2.89887
2.89628
2.89219
2.88818
2.8857
2.88709
2.8956
2.90884
2.92215
2.93296
2.9414
2.94665
2.94825
2.94871
2.94926
2.95151
2.95716
2.96607
2.97702
2.98873
2.99992
3.0102
3.02021
3.03038
3.04163
3.05517
3.07204
3.09336
3.1231
3.16365
3.21599
3.27775
3.34241
3.40096
3.44636
3.47683
3.49497
3.5044
3.5081
3.50853
3.50802
3.50623
3.50513
1
1
1
1
1
1
1
1
1
1
1
1
1
1
1
1
1
1
1
1
1
1
1
1
1
1
1
1
1
1
1
1
1
1
1
1
1
1
1
1
1
1
1
1
1
1
1
1
1
1
1
1
1
1
1
1
1
1
1
1
1
1
1
1
1
1
1
1
1
1
1
1
1
1
1
1
1
1
1
1
1
1
1
1
1
1
1
1
1
1
1
1
1
1
1
1
1
1
1
1
1
1
1
1
1
1
1
1
1
1
1
1
1
1
1
1
1
1
1
2.04036
2.82619
2.81879
2.81162
2.81568
2.82454
2.83149
2.83389
2.83261
2.82999
2.82964
2.83265
2.8366
2.83938
2.8415
2.84307
2.84472
2.84836
2.85637
2.86569
2.87198
2.8746
2.87502
2.87349
2.87208
2.87321
2.87675
2.88403
2.89197
2.89674
2.8979
2.89531
2.89118
2.88721
2.88499
2.88662
2.89542
2.90865
2.92199
2.93274
2.94105
2.94619
2.94776
2.94816
2.94864
2.95081
2.95634
2.96508
2.97581
2.98728
2.99834
3.00868
3.01888
3.02936
3.04093
3.0547
3.07146
3.09248
3.12165
3.16152
3.21327
3.2747
3.33938
3.39831
3.44427
3.47528
3.49382
3.50351
3.50738
3.50794
3.50765
3.50605
3.50524
1
1
1
1
1
1
1
1
1
1
1
1
1
1
1
1
1
1
1
1
1
1
1
1
1
1
1
1
1
1
1
1
1
1
1
1
1
1
1
1
1
1
1
1
1
1
1
1
1
1
1
1
1
1
1
1
1
1
1
1
1
1
1
1
1
1
1
1
1
1
1
1
1
1
1
1
1
1
1
1
1
1
1
1
1
1
1
1
1
1
1
1
1
1
1
1
1
1
1
1
1
1
1
1
1
1
1
1
1
1
1
1
1
1
1
1
1
1
1
1.99706
2.82106
2.8122
2.80794
2.81355
2.82369
2.83122
2.83315
2.83114
2.82759
2.82696
2.83064
2.8358
2.83977
2.84273
2.84417
2.84544
2.84859
2.85597
2.86491
2.87125
2.87413
2.87487
2.87336
2.87173
2.87267
2.8757
2.88263
2.8906
2.89558
2.89685
2.89423
2.89004
2.88618
2.8844
2.88631
2.89531
2.90843
2.92175
2.93242
2.94057
2.94563
2.9472
2.94757
2.948
2.9501
2.95548
2.96402
2.97448
2.9857
2.99664
3.00706
3.01749
3.02835
3.04028
3.05427
3.07092
3.09161
3.12012
3.15919
3.2102
3.27118
3.33583
3.39518
3.44182
3.47348
3.4925
3.5025
3.50657
3.50732
3.50727
3.50586
3.50539
1
1
1
1
1
1
1
1
1
1
1
1
1
1
1
1
1
1
1
1
1
1
1
1
1
1
1
1
1
1
1
1
1
1
1
1
1
1
1
1
1
1
1
1
1
1
1
1
1
1
1
1
1
1
1
1
1
1
1
1
1
1
1
1
1
1
1
1
1
1
1
1
1
1
1
1
1
1
1
1
1
1
1
1
1
1
1
1
1
1
1
1
1
1
1
1
1
1
1
1
1
1
1
1
1
1
1
1
1
1
1
1
1
1
1
1
1
1
1
1.94915
2.81115
2.80457
2.80416
2.81207
2.82353
2.83146
2.83212
2.82905
2.82473
2.82435
2.82889
2.83546
2.84092
2.84416
2.84508
2.84596
2.84858
2.85528
2.86398
2.87056
2.87382
2.87478
2.87324
2.87132
2.87198
2.87452
2.88107
2.88907
2.8943
2.89571
2.89306
2.88878
2.8851
2.88398
2.88621
2.89526
2.90819
2.92142
2.93197
2.93996
2.94496
2.94659
2.94695
2.94735
2.94938
2.95458
2.96285
2.97304
2.98397
2.9948
3.00535
3.01605
3.02733
3.03967
3.05389
3.07041
3.09076
3.11855
3.15674
3.2069
3.26732
3.33191
3.39169
3.43905
3.47143
3.49098
3.50134
3.50567
3.50666
3.50688
3.50569
3.50559
1
1
1
1
1
1
1
1
1
1
1
1
1
1
1
1
1
1
1
1
1
1
1
1
1
1
1
1
1
1
1
1
1
1
1
1
1
1
1
1
1
1
1
1
1
1
1
1
1
1
1
1
1
1
1
1
1
1
1
1
1
1
1
1
1
1
1
1
1
1
1
1
1
1
1
1
1
1
1
1
1
1
1
1
1
1
1
1
1
1
1
1
1
1
1
1
1
1
1
1
1
1
1
1
1
1
1
1
1
1
1
1
1
1
1
1
1
1
1
1.89146
2.79165
2.79852
2.80124
2.8118
2.82387
2.83174
2.83085
2.82618
2.82158
2.82197
2.82774
2.83565
2.84255
2.84564
2.84586
2.84626
2.84826
2.85438
2.86301
2.86997
2.87362
2.8747
2.8731
2.87084
2.87112
2.87321
2.87936
2.8874
2.89291
2.89445
2.89178
2.88746
2.88409
2.88372
2.88629
2.89523
2.90787
2.92096
2.93138
2.9392
2.94417
2.94593
2.94631
2.94669
2.94862
2.95359
2.96154
2.97144
2.9821
2.99284
3.00355
3.01455
3.02631
3.03909
3.05352
3.06993
3.08992
3.11698
3.15423
3.20348
3.26328
3.32775
3.38796
3.43605
3.46916
3.48927
3.5
3.50464
3.50594
3.50649
3.50556
3.50586
1
1
1
1
1
1
1
1
1
1
1
1
1
1
1
1
1
1
1
1
1
1
1
1
1
1
1
1
1
1
1
1
1
1
1
1
1
1
1
1
1
1
1
1
1
1
1
1
1
1
1
1
1
1
1
1
1
1
1
1
1
1
1
1
1
1
1
1
1
1
1
1
1
1
1
1
1
1
1
1
1
1
1
1
1
1
1
1
1
1
1
1
1
1
1
1
1
1
1
1
1
1
1
1
1
1
1
1
1
1
1
1
1
1
1
1
1
1
1
1.82048
2.76185
2.7938
2.79939
2.8127
2.82473
2.83124
2.82877
2.82283
2.81862
2.82002
2.82733
2.83668
2.84438
2.84677
2.84655
2.84618
2.84764
2.85338
2.86213
2.86949
2.87342
2.87455
2.87286
2.87026
2.87008
2.87178
2.87752
2.88563
2.8914
2.89305
2.8904
2.88618
2.88334
2.88357
2.8865
2.89521
2.90746
2.92034
2.93063
2.93828
2.94329
2.94524
2.94567
2.94603
2.94783
2.9525
2.96008
2.96966
2.98008
2.99078
3.00167
3.01302
3.02531
3.03856
3.05317
3.06945
3.08907
3.11539
3.15169
3.20001
3.25916
3.32349
3.38409
3.4329
3.46671
3.48734
3.49847
3.50347
3.50514
3.50609
3.50548
3.5062
1
1
1
1
1
1
1
1
1
1
1
1
1
1
1
1
1
1
1
1
1
1
1
1
1
1
1
1
1
1
1
1
1
1
1
1
1
1
1
1
1
1
1
1
1
1
1
1
1
1
1
1
1
1
1
1
1
1
1
1
1
1
1
1
1
1
1
1
1
1
1
1
1
1
1
1
1
1
1
1
1
1
1
1
1
1
1
1
1
1
1
1
1
1
1
1
1
1
1
1
1
1
1
1
1
1
1
1
1
1
1
1
1
1
1
1
1
1
1
1.73491
2.72268
2.78934
2.79867
2.81429
2.82568
2.82952
2.82594
2.81938
2.81618
2.81885
2.8277
2.8386
2.84626
2.84744
2.84686
2.84562
2.84679
2.85244
2.86139
2.86905
2.87315
2.87427
2.87246
2.86956
2.86887
2.87021
2.87555
2.88377
2.88978
2.8915
2.88893
2.885
2.88299
2.8836
2.8868
2.89516
2.90691
2.91953
2.92968
2.93718
2.94234
2.94456
2.94504
2.94535
2.94698
2.95129
2.95844
2.96769
2.97789
2.9886
2.99972
3.01146
3.02434
3.03806
3.05279
3.06894
3.08818
3.11376
3.14911
3.1965
3.25501
3.31918
3.38015
3.42962
3.46409
3.48521
3.49672
3.50214
3.50426
3.50566
3.50548
3.50659
1
1
1
1
1
1
1
1
1
1
1
1
1
1
1
1
1
1
1
1
1
1
1
1
1
1
1
1
1
1
1
1
1
1
1
1
1
1
1
1
1
1
1
1
1
1
1
1
1
1
1
1
1
1
1
1
1
1
1
1
1
1
1
1
1
1
1
1
1
1
1
1
1
1
1
1
1
1
1
1
1
1
1
1
1
1
1
1
1
1
1
1
1
1
1
1
1
1
1
1
1
1
1
1
1
1
1
1
1
1
1
1
1
1
1
1
1
1
1
1.63466
2.67281
2.78478
2.79894
2.81539
2.8264
2.82707
2.82279
2.81623
2.81458
2.81851
2.8291
2.84102
2.84775
2.84769
2.84654
2.84472
2.84592
2.85164
2.86074
2.86855
2.87273
2.87383
2.87188
2.86869
2.8675
2.86852
2.8735
2.88183
2.88804
2.88977
2.88742
2.88403
2.88302
2.88379
2.88717
2.89502
2.90621
2.9185
2.92851
2.93592
2.94133
2.9439
2.94441
2.94464
2.94606
2.94995
2.95664
2.96552
2.97554
2.98632
2.99771
3.0099
3.02342
3.0376
3.05238
3.06838
3.08724
3.11208
3.14647
3.19294
3.25082
3.31484
3.37615
3.42626
3.46135
3.4829
3.49477
3.50064
3.50329
3.50522
3.50553
3.50703
1
1
1
1
1
1
1
1
1
1
1
1
1
1
1
1
1
1
1
1
1
1
1
1
1
1
1
1
1
1
1
1
1
1
1
1
1
1
1
1
1
1
1
1
1
1
1
1
1
1
1
1
1
1
1
1
1
1
1
1
1
1
1
1
1
1
1
1
1
1
1
1
1
1
1
1
1
1
1
1
1
1
1
1
1
1
1
1
1
1
1
1
1
1
1
1
1
1
1
1
1
1
1
1
1
1
1
1
1
1
1
1
1
1
1
1
1
1
1
1.51411
2.60885
2.78218
2.80015
2.81599
2.82639
2.82492
2.8194
2.81381
2.81391
2.81917
2.83143
2.84312
2.84833
2.84745
2.84558
2.84386
2.84524
2.85097
2.86008
2.86792
2.87214
2.87322
2.87107
2.86759
2.86595
2.86673
2.8714
2.87979
2.88613
2.88789
2.88597
2.88347
2.88326
2.8842
2.88754
2.89473
2.90532
2.91724
2.92712
2.93452
2.9403
2.94326
2.94378
2.94391
2.94506
2.94849
2.95469
2.96317
2.97301
2.98392
2.99566
3.00836
3.02253
3.03714
3.05194
3.06777
3.08623
3.11033
3.14376
3.18932
3.24658
3.31045
3.3721
3.42282
3.45848
3.48044
3.49262
3.49898
3.50227
3.50479
3.50562
3.50747
1
1
1
1
1
1
1
1
1
1
1
1
1
1
1
1
1
1
1
1
1
1
1
1
1
1
1
1
1
1
1
1
1
1
1
1
1
1
1
1
1
1
1
1
1
1
1
1
1
1
1
1
1
1
1
1
1
1
1
1
1
1
1
1
1
1
1
1
1
1
1
1
1
1
1
1
1
1
1
1
1
1
1
1
1
1
1
1
1
1
1
1
1
1
1
1
1
1
1
1
1
1
1
1
1
1
1
1
1
1
1
1
1
1
1
1
1
1
1
1.37497
2.53262
2.7827
2.80153
2.81697
2.82509
2.82217
2.81618
2.81268
2.81442
2.82119
2.83372
2.84422
2.84785
2.84642
2.84448
2.84324
2.84478
2.85031
2.85931
2.86714
2.87136
2.87241
2.87001
2.86623
2.86423
2.8649
2.86928
2.8776
2.88403
2.8859
2.88465
2.88347
2.88363
2.88476
2.88779
2.89426
2.90423
2.91575
2.92554
2.93303
2.93926
2.94262
2.9431
2.94312
2.94398
2.94692
2.95262
2.96067
2.97031
2.98141
2.99356
3.00684
3.02168
3.03667
3.05144
3.06709
3.08513
3.10849
3.14096
3.1856
3.24225
3.30597
3.36795
3.41927
3.45551
3.47785
3.49033
3.49716
3.50118
3.50438
3.50572
3.50789
1
1
1
1
1
1
1
1
1
1
1
1
1
1
1
1
1
1
1
1
1
1
1
1
1
1
1
1
1
1
1
1
1
1
1
1
1
1
1
1
1
1
1
1
1
1
1
1
1
1
1
1
1
1
1
1
1
1
1
1
1
1
1
1
1
1
1
1
1
1
1
1
1
1
1
1
1
1
1
1
1
1
1
1
1
1
1
1
1
1
1
1
1
1
1
1
1
1
1
1
1
1
1
1
1
1
1
1
1
1
1
1
1
1
1
1
1
1
1
1.22272
2.44729
2.78399
2.80642
2.81736
2.82296
2.81937
2.81393
2.81271
2.81614
2.82371
2.83498
2.84409
2.84633
2.84493
2.84355
2.84283
2.84444
2.84961
2.85838
2.86618
2.87035
2.87133
2.86868
2.86467
2.86242
2.8631
2.86717
2.87521
2.88167
2.88393
2.88355
2.8839
2.88433
2.88526
2.8879
2.89362
2.90289
2.91402
2.92378
2.93151
2.93822
2.94195
2.94236
2.94225
2.94279
2.94525
2.95046
2.95803
2.96747
2.9788
2.99144
3.00534
3.02084
3.03614
3.05087
3.06631
3.08393
3.10657
3.13808
3.18181
3.23783
3.30138
3.36366
3.41558
3.45241
3.47516
3.48792
3.49522
3.50003
3.50399
3.50582
3.50829
1
1
1
1
1
1
1
1
1
1
1
1
1
1
1
1
1
1
1
1
1
1
1
1
1
1
1
1
1
1
1
1
1
1
1
1
1
1
1
1
1
1
1
1
1
1
1
1
1
1
1
1
1
1
1
1
1
1
1
1
1
1
1
1
1
1
1
1
1
1
1
1
1
1
1
1
1
1
1
1
1
1
1
1
1
1
1
1
1
1
1
1
1
1
1
1
1
1
1
1
1
1
1
1
1
1
1
1
1
1
1
1
1
1
1
1
1
1
1
1.07128
2.36122
2.7928
2.81454
2.81817
2.82071
2.81672
2.81311
2.81359
2.81791
2.82558
2.83513
2.84294
2.84426
2.84335
2.84278
2.84249
2.84415
2.84889
2.85726
2.86497
2.86902
2.86989
2.86709
2.86302
2.86064
2.86135
2.86502
2.87259
2.87908
2.88209
2.88292
2.88458
2.88521
2.8856
2.88786
2.89288
2.90133
2.91205
2.9219
2.92999
2.93716
2.9412
2.94153
2.94125
2.94148
2.94351
2.94824
2.95531
2.96451
2.97612
2.9893
3.00387
3.01997
3.03553
3.0502
3.06543
3.08263
3.10457
3.13515
3.17795
3.23332
3.29666
3.35921
3.41171
3.44916
3.47234
3.48542
3.4932
3.49885
3.5036
3.5059
3.50864
1
1
1
1
1
1
1
1
1
1
1
1
1
1
1
1
1
1
1
1
1
1
1
1
1
1
1
1
1
1
1
1
1
1
1
1
1
1
1
1
1
1
1
1
1
1
1
1
1
1
1
1
1
1
1
1
1
1
1
1
1
1
1
1
1
1
1
1
1
1
1
1
1
1
1
1
1
1
1
1
1
1
1
1
1
1
1
1
1
1
1
1
1
1
1
1
1
1
1
1
1
1
1
1
1
1
1
1
1
1
1
1
1
1
1
1
1
1
1
1.00117
2.29512
2.804
2.82001
2.81923
2.8187
2.8141
2.8125
2.81465
2.81896
2.82644
2.83463
2.84109
2.84207
2.84184
2.842
2.84215
2.84393
2.84816
2.85589
2.86338
2.86728
2.86804
2.86532
2.86144
2.85898
2.85961
2.86273
2.86973
2.87641
2.88055
2.88286
2.88536
2.88593
2.88578
2.88768
2.89199
2.89953
2.9099
2.91993
2.92847
2.93607
2.94033
2.94057
2.94011
2.94002
2.9417
2.94597
2.95251
2.96147
2.97342
2.9872
3.00243
3.01902
3.03478
3.04937
3.0644
3.0812
3.10248
3.13217
3.17405
3.22872
3.29178
3.35454
3.40761
3.4457
3.46939
3.48285
3.49113
3.49765
3.5032
3.50595
3.50892
1
1
1
1
1
1
1
1
1
1
1
1
1
1
1
1
1
1
1
1
1
1
1
1
1
1
1
1
1
1
1
1
1
1
1
1
1
1
1
1
1
1
1
1
1
1
1
1
1
1
1
1
1
1
1
1
1
1
1
1
1
1
1
1
1
1
1
1
1
1
1
1
1
1
1
1
1
1
1
1
1
1
1
1
1
1
1
1
1
1
1
1
1
1
1
1
1
1
1
1
1
1
1
1
1
1
1
1
1
1
1
1
1
1
1
1
1
1
1
1
2.23165
2.8142
2.82146
2.81887
2.81517
2.81093
2.81078
2.81502
2.81994
2.82674
2.83369
2.83883
2.83995
2.8404
2.84114
2.84186
2.84374
2.84734
2.85418
2.86127
2.86506
2.86588
2.86354
2.86003
2.85746
2.85777
2.8602
2.8667
2.87385
2.87943
2.88326
2.88621
2.88639
2.88584
2.88735
2.89095
2.89754
2.90764
2.91794
2.92696
2.93489
2.9393
2.93946
2.9388
2.93842
2.9398
2.94364
2.94967
2.9584
2.97076
2.98517
3.001
3.01795
3.03383
3.04834
3.06318
3.07961
3.1003
3.12917
3.17011
3.22403
3.28674
3.34965
3.40326
3.442
3.46627
3.4802
3.48904
3.49642
3.50277
3.50597
3.50915
1
1
1
1
1
1
1
1
1
1
1
1
1
1
1
1
1
1
1
1
1
1
1
1
1
1
1
1
1
1
1
1
1
1
1
1
1
1
1
1
1
1
1
1
1
1
1
1
1
1
1
1
1
1
1
1
1
1
1
1
1
1
1
1
1
1
1
1
1
1
1
1
1
1
1
1
1
1
1
1
1
1
1
1
1
1
1
1
1
1
1
1
1
1
1
1
1
1
1
1
1
1
1
1
1
1
1
1
1
1
1
1
1
1
1
1
1
1
1
1
2.16251
2.81896
2.82
2.81542
2.80957
2.80698
2.80899
2.81504
2.82161
2.82678
2.8323
2.83625
2.83784
2.83901
2.84035
2.84166
2.84346
2.84625
2.85192
2.85858
2.86246
2.86366
2.86189
2.8588
2.85597
2.85566
2.85741
2.86366
2.87167
2.87876
2.88385
2.88702
2.88669
2.88578
2.88685
2.88973
2.89545
2.90535
2.91596
2.92542
2.93358
2.93806
2.93817
2.93734
2.9367
2.93779
2.94123
2.94678
2.95534
2.96821
2.98324
2.99958
3.01673
3.03264
3.04707
3.06172
3.07784
3.09801
3.12613
3.16616
3.21927
3.28154
3.34452
3.39863
3.43806
3.46295
3.47747
3.48696
3.49517
3.50228
3.50593
3.50932
1
1
1
1
1
1
1
1
1
1
1
1
1
1
1
1
1
1
1
1
1
1
1
1
1
1
1
1
1
1
1
1
1
1
1
1
1
1
1
1
1
1
1
1
1
1
1
1
1
1
1
1
1
1
1
1
1
1
1
1
1
1
1
1
1
1
1
1
1
1
1
1
1
1
1
1
1
1
1
1
1
1
1
1
1
1
1
1
1
1
1
1
1
1
1
1
1
1
1
1
1
1
1
1
1
1
1
1
1
1
1
1
1
1
1
1
1
1
1
1
2.08551
2.81751
2.81518
2.80692
2.80312
2.8033
2.80882
2.81586
2.82328
2.82683
2.8303
2.83334
2.8356
2.83775
2.84001
2.84157
2.84292
2.84466
2.84899
2.85537
2.85968
2.86159
2.86043
2.8576
2.85437
2.85325
2.8544
2.86088
2.87007
2.87845
2.88434
2.88756
2.88687
2.88566
2.88611
2.88831
2.89338
2.90311
2.91399
2.92381
2.93207
2.9366
2.9367
2.93574
2.93486
2.93567
2.93873
2.94385
2.95235
2.96582
2.98143
2.99814
3.01536
3.0312
3.04554
3.06003
3.07586
3.09559
3.12304
3.16217
3.21442
3.27617
3.33914
3.39372
3.43385
3.45944
3.47464
3.48488
3.49389
3.50168
3.50586
3.50941
1
1
1
1
1
1
1
1
1
1
1
1
1
1
1
1
1
1
1
1
1
1
1
1
1
1
1
1
1
1
1
1
1
1
1
1
1
1
1
1
1
1
1
1
1
1
1
1
1
1
1
1
1
1
1
1
1
1
1
1
1
1
1
1
1
1
1
1
1
1
1
1
1
1
1
1
1
1
1
1
1
1
1
1
1
1
1
1
1
1
1
1
1
1
1
1
1
1
1
1
1
1
1
1
1
1
1
1
1
1
1
1
1
1
1
1
1
1
1
1
2.00304
2.80855
2.80554
2.79738
2.79686
2.8005
2.80978
2.81839
2.82429
2.82616
2.82756
2.8301
2.83333
2.83678
2.84012
2.84137
2.84189
2.84245
2.84551
2.85193
2.85704
2.85978
2.85904
2.85627
2.85261
2.8506
2.85138
2.85863
2.86903
2.87832
2.88462
2.88778
2.88695
2.88533
2.88507
2.88683
2.89143
2.90096
2.91201
2.92207
2.93034
2.93488
2.93505
2.934
2.93294
2.93344
2.93614
2.9409
2.94947
2.96363
2.97971
2.99665
3.01381
3.02951
3.04376
3.05808
3.07366
3.09304
3.11988
3.15812
3.20944
3.27058
3.33349
3.38852
3.42939
3.45575
3.47173
3.48281
3.49259
3.50097
3.50572
3.50939
1
1
1
1
1
1
1
1
1
1
1
1
1
1
1
1
1
1
1
1
1
1
1
1
1
1
1
1
1
1
1
1
1
1
1
1
1
1
1
1
1
1
1
1
1
1
1
1
1
1
1
1
1
1
1
1
1
1
1
1
1
1
1
1
1
1
1
1
1
1
1
1
1
1
1
1
1
1
1
1
1
1
1
1
1
1
1
1
1
1
1
1
1
1
1
1
1
1
1
1
1
1
1
1
1
1
1
1
1
1
1
1
1
1
1
1
1
1
1
1
1.91887
2.78747
2.79506
2.78849
2.79114
2.79972
2.81174
2.82139
2.82447
2.82445
2.82419
2.8267
2.83131
2.83624
2.84033
2.84073
2.84024
2.83965
2.8419
2.84854
2.85467
2.85814
2.85752
2.85465
2.85066
2.84798
2.84879
2.85702
2.86834
2.87815
2.88462
2.8877
2.88674
2.88475
2.8839
2.88537
2.88963
2.89889
2.90998
2.92015
2.92833
2.93289
2.93322
2.93215
2.93096
2.93114
2.93346
2.93798
2.94678
2.96161
2.97803
2.99507
3.01206
3.02756
3.04172
3.0559
3.07129
3.09036
3.11665
3.15399
3.2043
3.26475
3.32754
3.38303
3.42469
3.45191
3.46875
3.48074
3.49129
3.50018
3.50547
3.5092
1
1
1
1
1
1
1
1
1
1
1
1
1
1
1
1
1
1
1
1
1
1
1
1
1
1
1
1
1
1
1
1
1
1
1
1
1
1
1
1
1
1
1
1
1
1
1
1
1
1
1
1
1
1
1
1
1
1
1
1
1
1
1
1
1
1
1
1
1
1
1
1
1
1
1
1
1
1
1
1
1
1
1
1
1
1
1
1
1
1
1
1
1
1
1
1
1
1
1
1
1
1
1
1
1
1
1
1
1
1
1
1
1
1
1
1
1
1
1
1
1.82236
2.74982
2.78635
2.78158
2.78798
2.80089
2.81558
2.82285
2.82346
2.82158
2.82047
2.8235
2.82967
2.836
2.84029
2.83978
2.83803
2.8365
2.8384
2.84536
2.8525
2.85644
2.85574
2.85271
2.84852
2.84581
2.84721
2.85581
2.86764
2.87775
2.88424
2.88723
2.8862
2.88397
2.88269
2.88396
2.88795
2.89683
2.90781
2.91799
2.92601
2.93063
2.93119
2.9302
2.92894
2.92879
2.93069
2.93515
2.94445
2.95966
2.97632
2.99335
3.01011
3.02536
3.03944
3.0535
3.06875
3.08758
3.11334
3.14975
3.19895
3.25861
3.32123
3.37721
3.41976
3.44793
3.46573
3.4787
3.48997
3.4993
3.50507
3.50883
1
1
1
1
1
1
1
1
1
1
1
1
1
1
1
1
1
1
1
1
1
1
1
1
1
1
1
1
1
1
1
1
1
1
1
1
1
1
1
1
1
1
1
1
1
1
1
1
1
1
1
1
1
1
1
1
1
1
1
1
1
1
1
1
1
1
1
1
1
1
1
1
1
1
1
1
1
1
1
1
1
1
1
1
1
1
1
1
1
1
1
1
1
1
1
1
1
1
1
1
1
1
1
1
1
1
1
1
1
1
1
1
1
1
1
1
1
1
1
1
1.68377
2.68743
2.77866
2.77955
2.79024
2.80592
2.81938
2.82292
2.82149
2.81749
2.81674
2.82068
2.82855
2.8359
2.83982
2.83843
2.83555
2.83334
2.83515
2.84236
2.85027
2.85441
2.85373
2.85065
2.84652
2.84454
2.84652
2.85483
2.86672
2.87698
2.88341
2.88638
2.88543
2.8831
2.88152
2.88262
2.88635
2.89472
2.90544
2.91553
2.92336
2.9281
2.92899
2.92813
2.92687
2.92646
2.92793
2.93248
2.9424
2.9578
2.97451
2.99142
3.00791
3.02292
3.03694
3.05092
3.06608
3.0847
3.10995
3.14539
3.19338
3.25212
3.31453
3.37102
3.41457
3.44385
3.46271
3.4767
3.48865
3.49834
3.50449
3.50824
1
1
1
1
1
1
1
1
1
1
1
1
1
1
1
1
1
1
1
1
1
1
1
1
1
1
1
1
1
1
1
1
1
1
1
1
1
1
1
1
1
1
1
1
1
1
1
1
1
1
1
1
1
1
1
1
1
1
1
1
1
1
1
1
1
1
1
1
1
1
1
1
1
1
1
1
1
1
1
1
1
1
1
1
1
1
1
1
1
1
1
1
1
1
1
1
1
1
1
1
1
1
1
1
1
1
1
1
1
1
1
1
1
1
1
1
1
1
1
1
1.49554
2.59712
2.77565
2.78469
2.79907
2.81327
2.82176
2.82203
2.81789
2.81323
2.81352
2.81844
2.82802
2.83574
2.83882
2.83667
2.83297
2.83037
2.83218
2.83937
2.84775
2.85194
2.85162
2.84877
2.84525
2.84413
2.84632
2.85392
2.86546
2.87574
2.88211
2.88517
2.88452
2.88221
2.88043
2.88132
2.88476
2.89248
2.90278
2.91273
2.92039
2.92532
2.92664
2.92595
2.92474
2.92413
2.92529
2.93012
2.94061
2.95599
2.97254
2.98923
3.00543
3.02023
3.03422
3.04819
3.0633
3.08173
3.10646
3.1409
3.18757
3.24525
3.30739
3.36444
3.40912
3.43967
3.45973
3.47476
3.48733
3.49729
3.5037
3.5074
1
1
1
1
1
1
1
1
1
1
1
1
1
1
1
1
1
1
1
1
1
1
1
1
1
1
1
1
1
1
1
1
1
1
1
1
1
1
1
1
1
1
1
1
1
1
1
1
1
1
1
1
1
1
1
1
1
1
1
1
1
1
1
1
1
1
1
1
1
1
1
1
1
1
1
1
1
1
1
1
1
1
1
1
1
1
1
1
1
1
1
1
1
1
1
1
1
1
1
1
1
1
1
1
1
1
1
1
1
1
1
1
1
1
1
1
1
1
1
1
1.2677
2.4791
2.77517
2.79553
2.81001
2.81991
2.8222
2.81881
2.8132
2.80982
2.81113
2.8173
2.82791
2.83541
2.83724
2.83456
2.83027
2.82754
2.82936
2.83618
2.84486
2.8493
2.84966
2.84738
2.84493
2.84419
2.84633
2.85297
2.86378
2.87397
2.88036
2.88367
2.88358
2.88136
2.87945
2.88002
2.88312
2.89003
2.89977
2.90957
2.91714
2.92232
2.92414
2.92368
2.92255
2.92177
2.92288
2.92819
2.93902
2.95415
2.97035
2.98673
3.00265
3.01728
3.03129
3.04531
3.06044
3.07869
3.10288
3.13627
3.18153
3.23803
3.29981
3.35744
3.40339
3.4354
3.45681
3.47289
3.48602
3.49615
3.50269
3.50629
1
1
1
1
1
1
1
1
1
1
1
1
1
1
1
1
1
1
1
1
1
1
1
1
1
1
1
1
1
1
1
1
1
1
1
1
1
1
1
1
1
1
1
1
1
1
1
1
1
1
1
1
1
1
1
1
1
1
1
1
1
1
1
1
1
1
1
1
1
1
1
1
1
1
1
1
1
1
1
1
1
1
1
1
1
1
1
1
1
1
1
1
1
1
1
1
1
1
1
1
1
1
1
1
1
1
1
1
1
1
1
1
1
1
1
1
1
1
1
1
1.02974
2.3492
2.78771
2.80665
2.81478
2.81944
2.81856
2.81357
2.80873
2.80796
2.80996
2.81719
2.82785
2.83462
2.83478
2.8319
2.82738
2.8248
2.82662
2.83279
2.84181
2.84694
2.84801
2.84679
2.84519
2.84447
2.84638
2.85183
2.86165
2.8717
2.87828
2.88204
2.88266
2.88061
2.87857
2.87865
2.8814
2.88737
2.89641
2.90606
2.91367
2.91913
2.9215
2.9213
2.92029
2.91941
2.92081
2.92667
2.93752
2.95218
2.96792
2.98392
2.99958
3.0141
3.02816
3.0423
3.0575
3.07557
3.09918
3.13149
3.17529
3.23049
3.2918
3.35002
3.39737
3.43102
3.45394
3.4711
3.48468
3.49489
3.50144
3.50488
1
1
1
1
1
1
1
1
1
1
1
1
1
1
1
1
1
1
1
1
1
1
1
1
1
1
1
1
1
1
1
1
1
1
1
1
1
1
1
1
1
1
1
1
1
1
1
1
1
1
1
1
1
1
1
1
1
1
1
1
1
1
1
1
1
1
1
1
1
1
1
1
1
1
1
1
1
1
1
1
1
1
1
1
1
1
1
1
1
1
1
1
1
1
1
1
1
1
1
1
1
1
1
1
1
1
1
1
1
1
1
1
1
1
1
1
1
1
1
1
1.00016
2.22293
2.7974
2.81212
2.81213
2.81419
2.81123
2.8075
2.80534
2.80657
2.81011
2.81748
2.82721
2.83256
2.83159
2.82852
2.82434
2.82231
2.82401
2.82961
2.8389
2.84498
2.8469
2.84697
2.84564
2.84468
2.84624
2.85035
2.85909
2.86903
2.87602
2.88034
2.88174
2.87994
2.87775
2.87722
2.87954
2.8845
2.89273
2.90225
2.91005
2.91579
2.91866
2.91878
2.91798
2.91718
2.91915
2.92543
2.936
2.95002
2.96525
2.98084
2.99622
3.0107
3.02485
3.03915
3.05443
3.07234
3.09535
3.12657
3.16888
3.22268
3.2834
3.3422
3.39104
3.4265
3.4511
3.46932
3.4833
3.4935
3.49996
3.50318
1
1
1
1
1
1
1
1
1
1
1
1
1
1
1
1
1
1
1
1
1
1
1
1
1
1
1
1
1
1
1
1
1
1
1
1
1
1
1
1
1
1
1
1
1
1
1
1
1
1
1
1
1
1
1
1
1
1
1
1
1
1
1
1
1
1
1
1
1
1
1
1
1
1
1
1
1
1
1
1
1
1
1
1
1
1
1
1
1
1
1
1
1
1
1
1
1
1
1
1
1
1
1
1
1
1
1
1
1
1
1
1
1
1
1
1
1
1
1
1
1
2.0848
2.79319
2.80716
2.80443
2.80423
2.80224
2.80179
2.8034
2.80635
2.81097
2.81729
2.82516
2.82855
2.82735
2.82477
2.8215
2.82036
2.82184
2.82703
2.83642
2.8434
2.8464
2.84742
2.84597
2.84468
2.84563
2.84848
2.85618
2.86608
2.8737
2.87864
2.88081
2.8793
2.87693
2.87572
2.87745
2.88143
2.8888
2.89824
2.90634
2.91234
2.9156
2.91606
2.91566
2.91531
2.91788
2.92429
2.93435
2.94765
2.96235
2.9775
2.99263
3.00712
3.02137
3.03585
3.05123
3.06894
3.09134
3.12149
3.16232
3.21467
3.27471
3.33403
3.38442
3.42184
3.4482
3.46748
3.48182
3.49196
3.49824
3.50119
1
1
1
1
1
1
1
1
1
1
1
1
1
1
1
1
1
1
1
1
1
1
1
1
1
1
1
1
1
1
1
1
1
1
1
1
1
1
1
1
1
1
1
1
1
1
1
1
1
1
1
1
1
1
1
1
1