/*--------------------------------*- C++ -*----------------------------------*\
  =========                 |
  \\      /  F ield         | OpenFOAM: The Open Source CFD Toolbox
   \\    /   O peration     | Website:  https://openfoam.org
    \\  /    A nd           | Version:  7
     \\/     M anipulation  |
\*---------------------------------------------------------------------------*/
FoamFile
{
    version     2.0;
    format      ascii;
    class       volVectorField;
    location    "0.2";
    object      U;
}
// * * * * * * * * * * * * * * * * * * * * * * * * * * * * * * * * * * * * * //

dimensions      [0 1 -1 0 0 0 0];

internalField   nonuniform List<vector> 
4032
(
(3 1.16661e-17 0)
(3 7.52992e-18 0)
(3 -1.61219e-16 0)
(3 -1.73723e-16 0)
(3 -3.03251e-16 0)
(3 -4.56643e-16 0)
(3 -1.21026e-15 0)
(3 -1.46582e-15 0)
(3 -9.31691e-16 0)
(3 -3.88985e-16 0)
(3 -6.89656e-17 0)
(3 -3.5137e-17 0)
(3 -4.61705e-16 0)
(3 -8.3345e-17 0)
(3 -2.70423e-16 0)
(3 -3.27671e-16 0)
(2.97499 0.000512036 0)
(0.906773 0.03773 0)
(0.388025 0.0554626 0)
(0.318816 0.0505292 0)
(0.21097 0.0421738 0)
(0.127401 0.0373238 0)
(0.0912799 0.0337962 0)
(0.0308934 0.0345013 0)
(3 1.67488e-16 0)
(3 1.72404e-16 0)
(3 1.13661e-16 0)
(3 3.43842e-16 0)
(3 2.01067e-16 0)
(3 -4.32849e-17 0)
(3 -7.99259e-16 0)
(3 -1.51689e-15 0)
(3 -1.02354e-15 0)
(3 -8.91475e-16 0)
(3 -7.46182e-16 0)
(3 -7.31126e-16 0)
(3 -1.10019e-15 0)
(3 -1.87484e-15 0)
(3 -2.16611e-15 0)
(3 -2.2802e-15 0)
(2.99731 0.000447457 0)
(0.969834 0.1694 0)
(0.382838 0.199957 0)
(0.29195 0.158242 0)
(0.193262 0.121342 0)
(0.117722 0.10757 0)
(0.0849528 0.100107 0)
(0.0282817 0.104042 0)
(3 7.16449e-18 0)
(3 1.90388e-16 0)
(3 5.61449e-16 0)
(3 3.35308e-16 0)
(3 4.19384e-16 0)
(3 3.65711e-16 0)
(3 4.90916e-16 0)
(3 5.80083e-16 0)
(3 3.55412e-16 0)
(3 4.39144e-17 0)
(3 6.50361e-18 0)
(3 4.75095e-16 0)
(3 3.57282e-16 0)
(3 -1.68931e-15 0)
(3 -2.42758e-15 0)
(3 -1.84565e-15 0)
(3 1.34849e-07 0)
(1.15146 0.293215 0)
(0.428162 0.334039 0)
(0.310309 0.274049 0)
(0.219741 0.210822 0)
(0.137857 0.190043 0)
(0.0980494 0.178677 0)
(0.0305741 0.187363 0)
(3 -1.43186e-16 0)
(3 -1.46123e-16 0)
(3 -8.08736e-19 0)
(3 -1.59335e-16 0)
(3 -9.30709e-18 0)
(3 3.50708e-16 0)
(3 2.39854e-16 0)
(3 4.14217e-16 0)
(3 -1.70568e-16 0)
(3 -6.52263e-16 0)
(3 -8.79209e-16 0)
(3 -3.02672e-16 0)
(3 1.54997e-16 0)
(3 3.57412e-16 0)
(3 -3.853e-16 0)
(3 -3.78726e-16 0)
(3 -2.55166e-16 0)
(1.47981 0.390748 0)
(0.495648 0.460826 0)
(0.320869 0.39986 0)
(0.253426 0.316938 0)
(0.162785 0.294658 0)
(0.109255 0.274996 0)
(0.0288077 0.283327 0)
(3 -7.05959e-18 0)
(3 -1.15963e-16 0)
(3 -2.07949e-16 0)
(3 1.68772e-16 0)
(3 -7.03442e-17 0)
(3 -1.06791e-16 0)
(3 -2.45272e-16 0)
(3 -4.41298e-16 0)
(3 -5.89838e-16 0)
(3 -8.31695e-16 0)
(3 -5.20925e-16 0)
(3 -2.05498e-16 0)
(3 9.76681e-16 0)
(3 1.97976e-15 0)
(3 1.51517e-15 0)
(3 2.13745e-16 0)
(3 -4.89454e-16 0)
(2.01934 0.406878 0)
(0.611353 0.572666 0)
(0.351542 0.522396 0)
(0.318732 0.435768 0)
(0.226974 0.409316 0)
(0.139763 0.389085 0)
(0.0386163 0.39577 0)
(3 -9.93534e-18 0)
(3 -2.20397e-16 0)
(3 -4.44369e-16 0)
(3 9.06222e-17 0)
(3 1.79562e-16 0)
(3 2.55801e-16 0)
(3 3.74262e-17 0)
(3 -1.00437e-15 0)
(3 -1.38155e-15 0)
(3 -1.28408e-15 0)
(3 4.498e-17 0)
(3 1.65924e-15 0)
(3 1.39894e-15 0)
(3 2.30167e-16 0)
(3 1.63954e-16 0)
(3 2.80414e-16 0)
(3 -2.27216e-16 0)
(2.72786 0.223055 0)
(0.828299 0.662688 0)
(0.434058 0.646975 0)
(0.397026 0.576358 0)
(0.277081 0.549089 0)
(0.151178 0.528968 0)
(0.0347584 0.53494 0)
(3 -1.36481e-16 0)
(3 -4.83183e-16 0)
(3 -4.07015e-16 0)
(3 -4.70551e-16 0)
(3 -4.45582e-16 0)
(3 -2.07829e-16 0)
(3 -5.35584e-17 0)
(3 2.24435e-16 0)
(3 -2.61935e-16 0)
(3 -2.85199e-16 0)
(3 6.42576e-16 0)
(3 8.9901e-16 0)
(3 -1.02273e-15 0)
(3 -2.01881e-15 0)
(3 -2.09711e-15 0)
(3 -4.37561e-16 0)
(3 1.69443e-16 0)
(3.0082 0.0156954 0)
(1.31781 0.714141 0)
(0.569668 0.785903 0)
(0.47653 0.741785 0)
(0.351452 0.692854 0)
(0.221268 0.663594 0)
(0.0866478 0.692948 0)
(3 6.07187e-17 0)
(3 2.92907e-16 0)
(3 3.25319e-16 0)
(3 8.41421e-17 0)
(3 -2.46868e-16 0)
(3 -3.08145e-16 0)
(3 7.32221e-17 0)
(3 1.45035e-15 0)
(3 1.80527e-15 0)
(3 1.29793e-15 0)
(3 4.80374e-16 0)
(3 -1.36059e-15 0)
(3 -2.1369e-15 0)
(3 -1.92129e-15 0)
(3 -1.74298e-15 0)
(3 -9.47239e-16 0)
(3 -1.16958e-15 0)
(3.00007 4.84884e-05 0)
(2.22828 0.553225 0)
(0.797735 0.898392 0)
(0.550701 0.89367 0)
(0.464766 0.804457 0)
(0.305503 0.84504 0)
(0.150642 0.993001 0)
(3 2.8046e-16 0)
(3 6.15186e-16 0)
(3 4.15433e-16 0)
(3 8.22817e-17 0)
(3 2.53098e-16 0)
(3 -3.76942e-16 0)
(3 -7.62604e-16 0)
(3 -5.62346e-16 0)
(3 1.10461e-17 0)
(3 2.83568e-16 0)
(3 -5.47686e-16 0)
(3 -8.28107e-16 0)
(3 -4.35596e-16 0)
(3 -2.45742e-16 0)
(3 -2.52637e-16 0)
(3 -4.74031e-16 0)
(3 -1.60768e-15 0)
(3 4.66245e-09 0)
(3.03403 0.0986181 0)
(1.23009 0.938279 0)
(0.682023 0.984839 0)
(0.649833 0.944735 0)
(0.565541 1.08297 0)
(0.659316 1.32188 0)
(3 -3.15864e-17 0)
(3 9.5611e-17 0)
(3 4.47607e-16 0)
(3 6.46862e-17 0)
(3 -9.51712e-17 0)
(3 -6.03641e-16 0)
(3 -1.11638e-15 0)
(3 -1.48754e-15 0)
(3 -1.26933e-15 0)
(3 -8.13333e-16 0)
(3 -8.65336e-16 0)
(3 -3.96974e-16 0)
(3 2.26971e-16 0)
(3 4.34387e-16 0)
(3 -3.6009e-16 0)
(3 -5.27345e-16 0)
(3 -1.97479e-15 0)
(3 4.53744e-14 0)
(3.00302 0.00146873 0)
(2.23571 0.671546 0)
(0.978162 1.07195 0)
(0.805174 1.12164 0)
(0.869965 1.16827 0)
(1.09895 1.26355 0)
(3 -2.63262e-16 0)
(3 -2.5423e-16 0)
(3 3.2499e-16 0)
(3 -1.86467e-16 0)
(3 -7.34284e-16 0)
(3 -5.72769e-16 0)
(3 -6.10422e-17 0)
(3 3.23655e-16 0)
(3 -6.47505e-16 0)
(3 -8.57284e-16 0)
(3 -2.5213e-16 0)
(3 6.23852e-16 0)
(3 7.56217e-16 0)
(3 3.46175e-17 0)
(3 -3.67439e-16 0)
(3 -6.33037e-16 0)
(3 -1.03973e-15 0)
(3 -5.16477e-16 0)
(3 1.92192e-06 0)
(3.02165 0.0966356 0)
(1.58877 1.02227 0)
(1.02108 1.22869 0)
(1.10343 1.21395 0)
(1.37473 1.21954 0)
(3 -3.36264e-17 0)
(3 -8.05001e-16 0)
(3 -1.39577e-15 0)
(3 -1.49457e-15 0)
(3 -1.60694e-15 0)
(3 -2.41253e-16 0)
(3 1.70298e-16 0)
(3 3.86755e-16 0)
(3 2.27508e-16 0)
(3 -2.6618e-16 0)
(3 -3.54185e-16 0)
(3 -3.90154e-16 0)
(3 -4.3458e-16 0)
(3 -1.92858e-15 0)
(3 -1.9168e-15 0)
(3 -1.05311e-15 0)
(3 3.81977e-16 0)
(3 5.11811e-16 0)
(3 6.68793e-11 0)
(3.00164 0.00147496 0)
(2.77979 0.420165 0)
(1.47512 1.16045 0)
(1.25784 1.29799 0)
(1.47585 1.25478 0)
(3 1.78708e-16 0)
(3 -2.44039e-17 0)
(3 -5.55975e-16 0)
(3 -4.64929e-16 0)
(3 -8.67304e-16 0)
(3 -5.75066e-16 0)
(3 -4.62249e-16 0)
(3 -9.84204e-17 0)
(3 -2.19464e-16 0)
(3 -5.29247e-16 0)
(3 -1.90106e-15 0)
(3 -1.84162e-15 0)
(3 -1.59828e-15 0)
(3 -1.62656e-15 0)
(3 -2.08869e-15 0)
(3 -1.18492e-15 0)
(3 -4.24321e-16 0)
(3 -6.4435e-16 0)
(3 7.72269e-16 0)
(3 1.2436e-06 0)
(3.00987 0.0238944 0)
(2.47108 0.674583 0)
(1.56199 1.21668 0)
(1.54377 1.28127 0)
(3 1.20401e-16 0)
(3 4.01011e-16 0)
(3 8.63835e-17 0)
(3 3.09708e-16 0)
(3 4.38478e-16 0)
(3 6.96292e-17 0)
(3 2.41659e-16 0)
(3 4.22903e-16 0)
(3 -7.31544e-16 0)
(3 -2.09155e-15 0)
(3 -2.02324e-15 0)
(3 -1.32149e-15 0)
(3 -3.07416e-16 0)
(3 -2.23248e-16 0)
(3 -7.7025e-17 0)
(3 -2.23825e-17 0)
(3 -3.01036e-16 0)
(3 -7.90881e-16 0)
(3 -7.24479e-16 0)
(3 3.92933e-11 0)
(3.00007 0.000134438 0)
(2.99476 0.0730986 0)
(2.33752 0.786147 0)
(1.74666 1.2155 0)
(3 6.81181e-18 0)
(3 1.11733e-16 0)
(3 3.38604e-16 0)
(3 7.88068e-16 0)
(3 1.23788e-15 0)
(3 8.42625e-16 0)
(3 3.8555e-16 0)
(3 -8.03819e-16 0)
(3 -2.50822e-15 0)
(3 -3.3338e-15 0)
(3 -3.02396e-15 0)
(3 -1.92728e-15 0)
(3 -7.58311e-16 0)
(3 -3.29567e-16 0)
(3 3.39194e-16 0)
(3 3.19711e-16 0)
(3 -2.0363e-16 0)
(3 -1.24046e-16 0)
(3 9.89817e-17 0)
(3 1.43364e-15 0)
(3 3.74622e-08 0)
(3.00021 0.000872342 0)
(2.9627 0.119858 0)
(2.35394 0.78778 0)
(3 -8.47306e-17 0)
(3 -3.97722e-17 0)
(3 1.65718e-16 0)
(3 2.17134e-16 0)
(3 -3.12289e-16 0)
(3 -8.15065e-16 0)
(3 -1.22897e-15 0)
(3 -1.44285e-15 0)
(3 -2.14848e-15 0)
(3 -2.34364e-15 0)
(3 -2.99692e-15 0)
(3 -1.26367e-15 0)
(3 3.55836e-16 0)
(3 1.05483e-15 0)
(3 6.74043e-16 0)
(3 -8.08391e-17 0)
(3 -1.41739e-16 0)
(3 1.53294e-15 0)
(3 1.78733e-15 0)
(3 1.4612e-15 0)
(3 1.06877e-12 0)
(3 6.11067e-07 0)
(3.00017 0.00203197 0)
(2.93435 0.139277 0)
(3 -1.0014e-17 0)
(3 -5.25843e-17 0)
(3 -6.50826e-17 0)
(3 -3.27316e-16 0)
(3 -6.28621e-16 0)
(3 -7.94182e-16 0)
(3 -8.10187e-16 0)
(3 -4.25844e-16 0)
(3 6.80314e-16 0)
(3 1.34053e-15 0)
(3 1.52596e-15 0)
(3 1.63385e-15 0)
(3 1.34839e-15 0)
(3 7.97427e-16 0)
(3 4.79975e-16 0)
(3 4.01289e-16 0)
(3 1.39428e-15 0)
(3 2.30932e-15 0)
(3 2.1388e-15 0)
(3 2.85553e-16 0)
(3 -7.55981e-16 0)
(3 2.36753e-11 0)
(3 2.34416e-06 0)
(2.9997 0.00245751 0)
(3 5.75707e-17 0)
(3 -1.56703e-16 0)
(3 -1.10527e-16 0)
(3 3.25052e-16 0)
(3 6.9794e-16 0)
(3 4.11251e-16 0)
(3 1.56093e-16 0)
(3 9.31431e-16 0)
(3 2.0821e-15 0)
(3 3.09527e-15 0)
(3 3.19892e-15 0)
(3 2.24205e-15 0)
(3 2.11229e-15 0)
(3 5.71109e-16 0)
(3 -6.88628e-16 0)
(3 -3.32049e-16 0)
(3 2.44134e-16 0)
(3 3.80055e-16 0)
(3 -5.72067e-16 0)
(3 -1.14009e-15 0)
(3 -1.61862e-15 0)
(3 2.18762e-15 0)
(3 1.54567e-10 0)
(3 3.1713e-06 0)
(3 -3.98471e-17 0)
(3 -6.83193e-17 0)
(3 -2.14157e-16 0)
(3 -1.97876e-16 0)
(3 -9.47263e-17 0)
(3 1.21806e-16 0)
(3 4.05429e-16 0)
(3 8.05777e-16 0)
(3 1.40059e-15 0)
(3 1.7811e-15 0)
(3 1.42537e-15 0)
(3 1.95928e-16 0)
(3 -1.28673e-16 0)
(3 -6.75872e-17 0)
(3 2.30083e-16 0)
(3 -6.68214e-16 0)
(3 -1.2928e-15 0)
(3 -1.45599e-15 0)
(3 -7.408e-16 0)
(3 -1.81797e-16 0)
(3 1.66786e-17 0)
(3 -3.8824e-16 0)
(3 2.21135e-15 0)
(3 2.39958e-10 0)
(3 5.40455e-18 0)
(3 1.18148e-16 0)
(3 5.03886e-16 0)
(3 4.92752e-16 0)
(3 -3.18845e-16 0)
(3 8.16778e-17 0)
(3 4.94224e-16 0)
(3 8.89029e-16 0)
(3 1.67906e-15 0)
(3 1.8832e-15 0)
(3 1.4823e-15 0)
(3 -2.05979e-17 0)
(3 -8.85734e-16 0)
(3 -4.6716e-16 0)
(3 5.97187e-16 0)
(3 -9.03043e-16 0)
(3 -1.73494e-15 0)
(3 -2.22575e-15 0)
(3 -3.53326e-16 0)
(3 6.2379e-17 0)
(3 -2.97314e-16 0)
(3 -1.94242e-15 0)
(3 -2.34235e-15 0)
(3 4.48474e-15 0)
(3 1.35892e-16 0)
(3 2.37869e-16 0)
(3 9.11957e-16 0)
(3 1.01589e-15 0)
(3 1.80266e-16 0)
(3 -1.05702e-16 0)
(3 -4.83796e-16 0)
(3 1.06765e-15 0)
(3 1.99849e-15 0)
(3 1.70361e-15 0)
(3 1.54031e-15 0)
(3 1.2088e-15 0)
(3 1.09355e-15 0)
(3 4.55761e-16 0)
(3 4.36123e-16 0)
(3 1.30008e-16 0)
(3 -5.93609e-16 0)
(3 -8.04988e-16 0)
(3 -4.66952e-16 0)
(3 -3.77465e-16 0)
(3 -6.76298e-16 0)
(3 -1.23199e-15 0)
(3 -1.46155e-15 0)
(3 -1.78962e-15 0)
(3 6.06237e-17 0)
(3 4.68236e-16 0)
(3 4.15233e-17 0)
(3 -6.01518e-16 0)
(3 -1.01785e-15 0)
(3 -8.90689e-16 0)
(3 -7.22607e-16 0)
(3 8.78175e-17 0)
(3 5.70452e-16 0)
(3 4.37716e-16 0)
(3 3.8315e-16 0)
(3 1.06176e-15 0)
(3 3.83086e-16 0)
(3 5.88694e-16 0)
(3 5.54718e-16 0)
(3 1.11313e-15 0)
(3 3.06481e-16 0)
(3 -2.92329e-16 0)
(3 -1.13509e-15 0)
(3 -9.60334e-16 0)
(3 8.42712e-17 0)
(3 1.45327e-17 0)
(3 -7.74833e-16 0)
(3 -1.10416e-15 0)
(3 2.0025e-17 0)
(3 7.07139e-17 0)
(3 -3.96565e-16 0)
(3 -4.33673e-16 0)
(3 1.90203e-16 0)
(3 1.86174e-16 0)
(3 1.77753e-16 0)
(3 3.23896e-16 0)
(3 1.91694e-16 0)
(3 3.18161e-16 0)
(3 2.07961e-16 0)
(3 -1.22052e-16 0)
(3 -6.03577e-16 0)
(3 -1.26912e-15 0)
(3 -1.46238e-15 0)
(3 -5.96735e-16 0)
(3 -1.48979e-15 0)
(3 -2.42384e-15 0)
(3 -3.37024e-15 0)
(3 -1.5306e-15 0)
(3 -3.96478e-16 0)
(3 -4.77616e-16 0)
(3 -7.486e-16 0)
(3 -1.34826e-15 0)
(3 -2.92442e-17 0)
(3 -1.74421e-16 0)
(3 1.24101e-16 0)
(3 6.16386e-16 0)
(3 1.49519e-15 0)
(3 1.47424e-15 0)
(3 5.80469e-16 0)
(3 -7.34335e-16 0)
(3 -7.86107e-16 0)
(3 -7.25655e-16 0)
(3 -6.07813e-16 0)
(3 -1.29034e-15 0)
(3 -2.72394e-15 0)
(3 -4.23578e-15 0)
(3 -4.52442e-15 0)
(3 -4.29121e-15 0)
(3 -2.79924e-15 0)
(3 -3.36925e-15 0)
(3 -2.79333e-15 0)
(3 -1.12816e-15 0)
(3 -1.23068e-15 0)
(3 -4.89482e-16 0)
(3 -9.83921e-16 0)
(3 -1.9548e-15 0)
(3 -1.64272e-16 0)
(3 -3.80543e-16 0)
(3 2.31698e-16 0)
(3 4.5482e-16 0)
(3 4.33388e-16 0)
(3 2.66724e-16 0)
(3 1.57718e-16 0)
(3 -4.58343e-16 0)
(3 -1.03322e-15 0)
(3 -1.10813e-15 0)
(3 -1.37267e-15 0)
(3 -8.31382e-16 0)
(3 -1.47992e-15 0)
(3 -1.72412e-15 0)
(3 -2.18844e-15 0)
(3 -3.99561e-15 0)
(3 -3.19179e-15 0)
(3 -4.51917e-16 0)
(3 2.97837e-16 0)
(3 -1.76045e-15 0)
(3 -2.77316e-15 0)
(3 -3.01559e-15 0)
(3 -7.48388e-16 0)
(3 5.66184e-16 0)
(3 -9.51299e-17 0)
(3 -1.54136e-17 0)
(3 1.283e-16 0)
(3 -2.41864e-16 0)
(3 -5.16748e-16 0)
(3 -5.45985e-16 0)
(3 4.65579e-16 0)
(3 1.25576e-15 0)
(3 7.47963e-16 0)
(3 3.3995e-16 0)
(3 -8.67e-16 0)
(3 -1.56132e-15 0)
(3 -5.12316e-16 0)
(3 4.18903e-16 0)
(3 -8.2462e-18 0)
(3 -6.16177e-16 0)
(3 -1.98336e-16 0)
(3 1.55721e-15 0)
(3 7.40614e-16 0)
(3 -1.43172e-15 0)
(3 -2.27327e-15 0)
(3 -2.37e-15 0)
(3 -1.29005e-15 0)
(3 -5.96533e-17 0)
(3 -1.6443e-16 0)
(3 -1.98876e-16 0)
(3 2.08062e-16 0)
(3 -5.22772e-17 0)
(3 -1.03279e-15 0)
(3 -7.71454e-16 0)
(3 4.39314e-17 0)
(3 1.38493e-16 0)
(3 3.5336e-16 0)
(3 3.97403e-16 0)
(3 -3.84854e-16 0)
(3 -1.41173e-15 0)
(3 -1.345e-15 0)
(3 3.07858e-16 0)
(3 2.27536e-15 0)
(3 3.59616e-15 0)
(3 3.66635e-15 0)
(3 2.78131e-15 0)
(3 2.26975e-15 0)
(3 6.86385e-16 0)
(3 -5.23139e-16 0)
(3 -1.34151e-15 0)
(3 -2.26261e-15 0)
(3 -2.20482e-15 0)
(3 -4.0753e-17 0)
(3 -1.22992e-16 0)
(3 -2.70863e-16 0)
(3 6.15347e-17 0)
(3 -1.45042e-16 0)
(3 -2.54057e-16 0)
(3 -2.7739e-16 0)
(3 -4.2799e-16 0)
(3 -1.56373e-16 0)
(3 -1.4115e-16 0)
(3 1.11364e-15 0)
(3 1.45822e-15 0)
(3 1.76659e-15 0)
(3 1.72488e-15 0)
(3 1.67657e-15 0)
(3 2.15487e-15 0)
(3 3.29267e-15 0)
(3 2.71746e-15 0)
(3 2.57398e-15 0)
(3 3.31632e-15 0)
(3 3.06426e-15 0)
(3 1.532e-15 0)
(3 -4.16451e-16 0)
(3 -1.60654e-15 0)
(3 1.06079e-16 0)
(3 2.20391e-17 0)
(3 -5.18039e-16 0)
(3 -1.68146e-16 0)
(3 7.90745e-16 0)
(3 4.42227e-16 0)
(3 5.08884e-17 0)
(3 1.60957e-16 0)
(3 4.94776e-16 0)
(3 3.68489e-16 0)
(3 2.20459e-15 0)
(3 2.74181e-15 0)
(3 3.527e-15 0)
(3 3.97212e-15 0)
(3 2.74942e-15 0)
(3 1.68958e-15 0)
(3 1.43384e-15 0)
(3 1.25799e-15 0)
(3 1.49617e-15 0)
(3 2.0307e-15 0)
(3 1.37764e-15 0)
(3 1.4179e-15 0)
(3 1.27116e-16 0)
(3 -4.44498e-16 0)
(3 1.62419e-16 0)
(3 8.53254e-17 0)
(3 -6.78976e-17 0)
(3 -5.16695e-16 0)
(3 -2.24139e-16 0)
(3 2.07613e-16 0)
(3 -2.45717e-16 0)
(3 -4.12144e-16 0)
(3 -2.62776e-16 0)
(3 -1.08882e-16 0)
(3 7.77788e-16 0)
(3 3.25878e-15 0)
(3 3.66457e-15 0)
(3 2.48218e-15 0)
(3 1.28579e-15 0)
(3 1.6156e-16 0)
(3 2.08134e-16 0)
(3 6.38999e-16 0)
(3 4.79408e-16 0)
(3 -1.08276e-16 0)
(3 -5.65167e-16 0)
(3 -4.15831e-16 0)
(3 3.58108e-16 0)
(3 7.88883e-16 0)
(3 1.9112e-16 0)
(3 4.59883e-16 0)
(3 -1.50186e-17 0)
(3 -6.77013e-16 0)
(3 -7.16821e-16 0)
(3 -4.41974e-16 0)
(3 -6.43548e-16 0)
(3 -9.99499e-16 0)
(3 -4.60025e-16 0)
(3 -3.34056e-16 0)
(3 -2.54118e-16 0)
(3 9.8134e-16 0)
(3 1.30651e-15 0)
(3 8.21732e-16 0)
(3 1.04562e-15 0)
(3 6.03629e-16 0)
(3 -1.85705e-16 0)
(3 -1.32846e-15 0)
(3 -4.9942e-16 0)
(3 -4.95993e-16 0)
(3 2.43463e-16 0)
(3 7.37515e-16 0)
(3 1.87562e-15 0)
(3 2.17043e-15 0)
(3 7.66904e-17 0)
(3 3.96866e-16 0)
(3 -1.66507e-17 0)
(3 -3.86545e-16 0)
(3 -7.35676e-16 0)
(3 -8.49377e-16 0)
(3 -6.00086e-16 0)
(3 -5.63667e-16 0)
(3 -3.61902e-16 0)
(3 -4.17778e-16 0)
(3 -9.55475e-16 0)
(3 -1.93577e-15 0)
(3 -1.78346e-15 0)
(3 8.90143e-17 0)
(3 8.17501e-16 0)
(3 1.23492e-15 0)
(3 1.15925e-15 0)
(3 6.44297e-16 0)
(3 -1.76826e-15 0)
(3 -2.05583e-15 0)
(3 -8.97506e-16 0)
(3 1.27325e-15 0)
(3 1.67681e-15 0)
(3 1.74468e-15 0)
(3 -7.08971e-17 0)
(3 -4.49492e-17 0)
(3 -1.18378e-16 0)
(3 4.94727e-17 0)
(3 -1.69001e-16 0)
(3 -5.82519e-16 0)
(3 -1.08767e-15 0)
(3 -7.43663e-16 0)
(3 -1.31723e-15 0)
(3 -1.54964e-15 0)
(3 -1.07315e-15 0)
(3 -8.50249e-16 0)
(3 2.4072e-16 0)
(3 -9.90725e-17 0)
(3 -7.87143e-16 0)
(3 9.31573e-16 0)
(3 1.62743e-15 0)
(3 1.80826e-15 0)
(3 1.90464e-16 0)
(3 -9.29347e-16 0)
(3 -1.27432e-15 0)
(3 -7.74377e-16 0)
(3 -6.09582e-16 0)
(3 -6.86026e-16 0)
(3 -1.164e-16 0)
(3 -4.12529e-16 0)
(3 -7.31346e-17 0)
(3 8.85126e-16 0)
(3 5.41693e-16 0)
(3 7.88663e-17 0)
(3 -3.05628e-16 0)
(3 -6.7826e-17 0)
(3 -4.48196e-16 0)
(3 -4.46802e-16 0)
(3 -1.65731e-16 0)
(3 4.16224e-16 0)
(3 -4.13471e-16 0)
(3 -1.00852e-15 0)
(3 -5.94454e-17 0)
(3 1.30486e-15 0)
(3 1.2057e-15 0)
(3 1.36697e-15 0)
(3 6.86505e-16 0)
(3 3.51705e-16 0)
(3 -4.62398e-16 0)
(3 -9.29637e-16 0)
(3 -1.85123e-15 0)
(3 -2.35184e-15 0)
(3 4.92787e-17 0)
(3 2.07921e-16 0)
(3 4.88378e-16 0)
(3 8.17928e-16 0)
(3 4.11831e-16 0)
(3 -7.05128e-16 0)
(3 -2.23023e-16 0)
(3 -3.85922e-16 0)
(3 6.96e-16 0)
(3 7.44715e-16 0)
(3 6.00848e-16 0)
(3 8.18034e-16 0)
(3 -2.2657e-16 0)
(3 -3.28184e-16 0)
(3 -5.65508e-16 0)
(3 -7.22679e-16 0)
(3 -8.50192e-16 0)
(3 -7.28795e-16 0)
(3 3.70262e-16 0)
(3 1.0139e-15 0)
(3 9.67504e-16 0)
(3 3.50108e-17 0)
(3 -1.19379e-17 0)
(3 -8.81504e-17 0)
(3 -9.64694e-17 0)
(3 6.40238e-17 0)
(3 1.78037e-16 0)
(3 -6.71454e-16 0)
(3 -1.02338e-15 0)
(3 -1.24042e-15 0)
(3 -5.55768e-16 0)
(3 -4.56957e-16 0)
(3 -5.01542e-16 0)
(3 4.51299e-17 0)
(3 1.04818e-15 0)
(3 1.6625e-15 0)
(3 2.69475e-15 0)
(3 1.86818e-15 0)
(3 1.03495e-15 0)
(3 6.00978e-17 0)
(3 -2.92935e-16 0)
(3 -4.85934e-17 0)
(3 6.00509e-16 0)
(3 1.49465e-15 0)
(3 5.39543e-16 0)
(3 4.40549e-17 0)
(3 1.44271e-15 0)
(3 2.93124e-15 0)
(3 -1.17472e-17 0)
(3 -4.05827e-16 0)
(3 -5.45617e-16 0)
(3 -1.17201e-15 0)
(3 -8.15563e-17 0)
(3 5.77794e-16 0)
(3 -1.72803e-16 0)
(3 -1.04369e-15 0)
(3 -1.39964e-15 0)
(3 -1.41517e-15 0)
(3 1.84673e-16 0)
(3 1.02572e-15 0)
(3 9.62033e-16 0)
(3 4.35414e-16 0)
(3 7.62387e-16 0)
(3 1.35193e-15 0)
(3 1.38332e-15 0)
(3 5.43903e-16 0)
(3 3.26535e-16 0)
(3 -3.12814e-16 0)
(3 -3.91372e-16 0)
(3 -1.3137e-16 0)
(3 9.1905e-16 0)
(3 1.47479e-15 0)
(3 1.82301e-17 0)
(3 -3.37347e-17 0)
(3 -3.00656e-16 0)
(3 -2.20761e-16 0)
(3 7.51982e-16 0)
(3 1.52665e-15 0)
(3 1.78869e-15 0)
(3 2.04619e-15 0)
(3 1.79337e-16 0)
(3 -1.62361e-15 0)
(3 -1.29056e-15 0)
(3 -1.03254e-15 0)
(3 -1.20723e-15 0)
(3 -8.40175e-16 0)
(3 -4.44853e-16 0)
(3 2.45536e-16 0)
(3 7.52385e-16 0)
(3 1.19635e-15 0)
(3 9.393e-16 0)
(3 -1.89022e-16 0)
(3 -4.28809e-16 0)
(3 3.02591e-16 0)
(3 2.79148e-17 0)
(3 -4.25543e-16 0)
(3 -8.29982e-17 0)
(3 1.12745e-17 0)
(3 5.26646e-17 0)
(3 -4.63336e-16 0)
(3 -6.21169e-16 0)
(3 3.77592e-17 0)
(3 2.2648e-15 0)
(3 2.8863e-15 0)
(3 1.91308e-15 0)
(3 2.31061e-17 0)
(3 -1.68855e-15 0)
(3 -2.47424e-15 0)
(3 -2.04783e-15 0)
(3 -1.16428e-15 0)
(3 -9.43609e-16 0)
(3 -1.13384e-15 0)
(3 -2.35748e-16 0)
(3 5.9291e-16 0)
(3 5.41831e-16 0)
(3 7.08185e-16 0)
(3 9.68148e-16 0)
(3 9.29399e-16 0)
(3 7.84986e-16 0)
(3 1.05565e-15 0)
(3 -7.27238e-17 0)
(3 -3.19987e-16 0)
(3 -2.81298e-16 0)
(3 -4.91861e-16 0)
(3 -5.86485e-16 0)
(3 9.73825e-18 0)
(3 4.31304e-16 0)
(3 7.175e-16 0)
(3 8.52909e-16 0)
(3 5.98863e-16 0)
(3 -3.07746e-16 0)
(3 -1.33569e-15 0)
(3 -9.25663e-16 0)
(3 -5.88741e-16 0)
(3 -4.08742e-16 0)
(3 -5.27678e-16 0)
(3 -1.60265e-16 0)
(3 -1.49855e-16 0)
(3 -2.23816e-16 0)
(3 -8.23019e-17 0)
(3 3.52282e-16 0)
(3 6.04281e-16 0)
(3 5.94162e-16 0)
(3 6.74381e-16 0)
(1.73157 1.39121 0)
(2.12334 1.73792 0)
(2.40198 0.977831 0)
(2.71514 0.502604 0)
(2.742 0.168546 0)
(2.82128 0.0233537 0)
(2.82093 -0.0862695 0)
(2.81033 -0.131737 0)
(2.87694 -0.126472 0)
(2.92578 -0.0902257 0)
(2.909 -0.070656 0)
(2.88571 -0.0699352 0)
(2.88005 -0.0752101 0)
(2.88871 -0.0822825 0)
(2.90371 -0.0778155 0)
(2.91091 -0.0586342 0)
(2.90627 -0.0397822 0)
(2.89922 -0.0280206 0)
(2.90883 -0.019529 0)
(2.93981 -0.0175776 0)
(2.96539 -0.0240086 0)
(2.97999 -0.0249956 0)
(2.99437 -0.0194386 0)
(3.00749 -0.0140344 0)
(3.02388 -0.00680761 0)
(3.03346 -0.00117502 0)
(3.03404 -6.18569e-05 0)
(3.03254 0.00061779 0)
(3.02634 0.00105322 0)
(3.01276 0.000624215 0)
(3.00184 8.87424e-05 0)
(3.00003 1.14905e-06 0)
(3 -1.48059e-07 0)
(3 -1.29627e-07 0)
(3 -9.95891e-08 0)
(3 -4.99823e-08 0)
(3 -7.90326e-09 0)
(3 -1.32262e-10 0)
(3 8.23461e-12 0)
(3 6.78107e-12 0)
(3 2.9101e-12 0)
(3 2.99672e-13 0)
(3 -4.19126e-16 0)
(3 -2.54012e-15 0)
(3 -1.21523e-15 0)
(3 1.05418e-16 0)
(3 -5.22568e-16 0)
(3 -4.04114e-16 0)
(3 4.10609e-16 0)
(3 6.9607e-16 0)
(3 4.19584e-16 0)
(3 -4.80489e-16 0)
(3 -1.1593e-15 0)
(3 -1.324e-15 0)
(3 -4.83309e-16 0)
(3 -8.62377e-17 0)
(3 -5.80949e-16 0)
(3 -8.45292e-16 0)
(3 -8.64711e-16 0)
(3 -2.96539e-16 0)
(3 -3.02937e-16 0)
(3 -3.92798e-16 0)
(3 -1.93107e-16 0)
(3 -1.1591e-16 0)
(3 -1.64291e-16 0)
(3 -9.22251e-16 0)
(3 -1.57684e-15 0)
(3 -6.32608e-16 0)
(3 1.00235e-16 0)
(3 1.84117e-17 0)
(3 2.22081e-16 0)
(3 -3.13327e-16 0)
(3 -5.17814e-16 0)
(3 -4.0965e-16 0)
(3 2.7082e-17 0)
(3 -5.73601e-16 0)
(3 -7.426e-16 0)
(3 -9.64238e-16 0)
(3 -1.55754e-15 0)
(3 -1.34346e-15 0)
(3 -9.48953e-17 0)
(3 6.32585e-16 0)
(3 2.64054e-16 0)
(3 5.37029e-17 0)
(3 1.39705e-16 0)
(3 3.08043e-16 0)
(3 2.2998e-16 0)
(3 -7.25482e-16 0)
(3 -5.28924e-16 0)
(3 -2.67582e-17 0)
(3 2.46299e-16 0)
(3 6.88942e-16 0)
(3 4.91937e-16 0)
(3 -3.98702e-17 0)
(3 3.60448e-16 0)
(3 8.29395e-16 0)
(1.96808 1.09427 0)
(2.36484 0.897496 0)
(2.576 0.349426 0)
(2.73041 -0.0958177 0)
(2.83956 -0.207839 0)
(2.93429 -0.286586 0)
(2.88655 -0.386886 0)
(2.95831 -0.343391 0)
(2.96356 -0.214545 0)
(2.98135 -0.0856332 0)
(2.96437 -0.0136167 0)
(2.93703 -0.0104069 0)
(2.92445 -0.0299138 0)
(2.92256 -0.0659243 0)
(2.92295 -0.0888505 0)
(2.91349 -0.0738501 0)
(2.89039 -0.0407578 0)
(2.86786 -0.0108399 0)
(2.86527 0.00849189 0)
(2.88945 0.00762402 0)
(2.92624 -0.0143867 0)
(2.9617 -0.0356154 0)
(2.99295 -0.0397783 0)
(3.02141 -0.0277485 0)
(3.03852 -0.0127303 0)
(3.04235 -0.00621909 0)
(3.04182 -0.00369358 0)
(3.03725 0.00147216 0)
(3.02587 0.00426474 0)
(3.00938 0.00226485 0)
(3.00083 0.00021574 0)
(3.00001 1.47008e-06 0)
(3 -2.90253e-07 0)
(3 -2.71102e-07 0)
(3 -2.24697e-07 0)
(3 -1.03881e-07 0)
(3 -1.11433e-08 0)
(3 -7.58553e-11 0)
(3 2.43693e-11 0)
(3 1.9369e-11 0)
(3 7.64027e-12 0)
(3 6.06219e-13 0)
(3 -5.25841e-16 0)
(3 -3.4308e-15 0)
(3 -1.46516e-15 0)
(3 1.36325e-15 0)
(3 1.71766e-16 0)
(3 -6.00115e-16 0)
(3 3.32293e-16 0)
(3 6.2725e-16 0)
(3 7.40613e-16 0)
(3 2.69509e-16 0)
(3 -8.54063e-17 0)
(3 -3.39663e-16 0)
(3 1.29064e-16 0)
(3 6.59835e-16 0)
(3 1.94608e-16 0)
(3 -2.57604e-16 0)
(3 -3.84901e-16 0)
(3 -2.7482e-16 0)
(3 3.18465e-16 0)
(3 4.6991e-16 0)
(3 7.56696e-16 0)
(3 3.13755e-16 0)
(3 -1.38432e-16 0)
(3 -1.18614e-15 0)
(3 -1.71399e-15 0)
(3 -7.56591e-16 0)
(3 4.11444e-16 0)
(3 -5.10493e-16 0)
(3 -1.38175e-15 0)
(3 -1.12213e-15 0)
(3 -1.30598e-15 0)
(3 -1.3801e-15 0)
(3 -1.14588e-15 0)
(3 -7.77797e-16 0)
(3 -1.05838e-15 0)
(3 -1.08805e-15 0)
(3 -2.78242e-15 0)
(3 -2.54019e-15 0)
(3 -1.8196e-16 0)
(3 1.07202e-15 0)
(3 5.99914e-16 0)
(3 2.42003e-16 0)
(3 6.77134e-16 0)
(3 1.29817e-15 0)
(3 9.88834e-16 0)
(3 3.44457e-16 0)
(3 -1.23877e-16 0)
(3 -6.29423e-16 0)
(3 -1.58319e-16 0)
(3 1.93713e-16 0)
(3 -2.58165e-16 0)
(3 -7.44576e-16 0)
(3 7.28963e-16 0)
(3 1.54624e-15 0)
(1.91743 1.0782 0)
(2.21627 0.949154 0)
(2.45846 0.681147 0)
(2.6652 0.30904 0)
(2.79784 0.161076 0)
(2.86217 0.194366 0)
(2.91069 0.0269818 0)
(2.93921 -0.103195 0)
(2.96955 -0.121591 0)
(2.9809 -0.111309 0)
(2.97974 -0.11586 0)
(2.98956 -0.146075 0)
(3.01417 -0.191655 0)
(3.03719 -0.239869 0)
(3.0432 -0.243923 0)
(3.02868 -0.214409 0)
(3.00644 -0.176309 0)
(2.98961 -0.145675 0)
(2.98673 -0.124093 0)
(2.98906 -0.102306 0)
(2.98763 -0.0772404 0)
(2.99705 -0.0556506 0)
(3.02191 -0.035655 0)
(3.05107 -0.0163334 0)
(3.05852 -0.0049282 0)
(3.05583 -0.00128402 0)
(3.05045 0.00416548 0)
(3.03798 0.00896592 0)
(3.01988 0.00732509 0)
(3.00391 0.00154214 0)
(3.00012 4.1797e-05 0)
(3 -4.95314e-07 0)
(3 -5.03329e-07 0)
(3 -4.45883e-07 0)
(3 -2.90096e-07 0)
(3 -7.49207e-08 0)
(3 -2.99046e-09 0)
(3 2.62752e-11 0)
(3 2.85421e-11 0)
(3 1.93638e-11 0)
(3 4.7733e-12 0)
(3 1.65831e-13 0)
(3 -1.61615e-15 0)
(3 -1.8706e-15 0)
(3 -1.42493e-15 0)
(3 1.13836e-17 0)
(3 1.10851e-15 0)
(3 -7.15607e-16 0)
(3 -1.19601e-15 0)
(3 -7.4265e-16 0)
(3 1.38444e-15 0)
(3 2.18378e-15 0)
(3 1.87987e-15 0)
(3 1.53107e-15 0)
(3 8.55453e-16 0)
(3 8.26693e-16 0)
(3 1.55159e-15 0)
(3 2.27898e-15 0)
(3 2.15186e-15 0)
(3 1.71228e-15 0)
(3 1.51295e-15 0)
(3 2.47782e-16 0)
(3 -2.37552e-16 0)
(3 -9.27125e-16 0)
(3 -1.36088e-15 0)
(3 -5.68537e-16 0)
(3 -1.42192e-15 0)
(3 -2.25271e-15 0)
(3 -2.69882e-15 0)
(3 -1.19351e-15 0)
(3 -1.01645e-15 0)
(3 -1.21281e-15 0)
(3 -9.61496e-16 0)
(3 -1.01691e-15 0)
(3 -1.83864e-15 0)
(3 -1.7754e-15 0)
(3 -9.1245e-16 0)
(3 -8.37508e-16 0)
(3 -1.11773e-15 0)
(3 -8.99894e-16 0)
(3 3.56328e-17 0)
(3 -4.13739e-16 0)
(3 -1.83615e-15 0)
(3 -1.65662e-15 0)
(3 -6.00342e-16 0)
(3 -6.00867e-16 0)
(3 7.24113e-16 0)
(3 1.64395e-15 0)
(3 1.98631e-15 0)
(3 1.37533e-15 0)
(3 9.81231e-16 0)
(3 3.60666e-17 0)
(3 5.67781e-17 0)
(3 1.07091e-15 0)
(3 1.81039e-15 0)
(3 2.23846e-15 0)
(1.8721 1.11655 0)
(2.17215 0.947301 0)
(2.40523 0.788584 0)
(2.60335 0.52523 0)
(2.70412 0.433622 0)
(2.78068 0.402641 0)
(2.93059 0.153275 0)
(2.94615 -0.113754 0)
(2.96025 -0.156474 0)
(2.99091 -0.176538 0)
(3.02335 -0.240363 0)
(3.03359 -0.302136 0)
(3.06739 -0.336211 0)
(3.09447 -0.335395 0)
(3.09654 -0.320304 0)
(3.08136 -0.291418 0)
(3.06726 -0.269111 0)
(3.06269 -0.256594 0)
(3.06056 -0.237677 0)
(3.05349 -0.20445 0)
(3.0495 -0.157572 0)
(3.06043 -0.100217 0)
(3.08223 -0.0427105 0)
(3.08693 -0.00664582 0)
(3.07945 0.00458589 0)
(3.07089 0.0126544 0)
(3.05596 0.0189032 0)
(3.03338 0.0166834 0)
(3.00959 0.00514944 0)
(3.00055 0.000261459 0)
(3 2.17274e-07 0)
(3 -6.66056e-07 0)
(3 -6.1114e-07 0)
(3 -4.44056e-07 0)
(3 -1.79616e-07 0)
(3 -1.84743e-08 0)
(3 -1.38416e-10 0)
(3 3.21323e-11 0)
(3 2.65345e-11 0)
(3 1.10465e-11 0)
(3 1.05071e-12 0)
(3 6.1143e-15 0)
(3 -7.63034e-16 0)
(3 3.86716e-16 0)
(3 5.93818e-16 0)
(3 8.32481e-16 0)
(3 5.15312e-16 0)
(3 -1.08346e-15 0)
(3 -9.19577e-16 0)
(3 -8.21417e-17 0)
(3 2.33417e-16 0)
(3 6.89926e-16 0)
(3 1.56377e-15 0)
(3 2.37192e-16 0)
(3 1.42319e-16 0)
(3 8.15219e-17 0)
(3 8.2954e-16 0)
(3 1.92494e-15 0)
(3 2.55827e-15 0)
(3 2.3963e-15 0)
(3 1.32705e-15 0)
(3 -7.58434e-16 0)
(3 -1.16979e-15 0)
(3 -6.14844e-16 0)
(3 -6.61885e-16 0)
(3 3.69546e-16 0)
(3 4.789e-16 0)
(3 -7.14145e-16 0)
(3 -1.00257e-15 0)
(3 -5.52752e-16 0)
(3 1.00938e-16 0)
(3 5.39618e-16 0)
(3 8.42662e-16 0)
(3 3.6917e-16 0)
(3 4.73971e-16 0)
(3 2.27173e-17 0)
(3 -1.0031e-16 0)
(3 -5.25878e-16 0)
(3 4.22483e-16 0)
(3 1.04347e-15 0)
(3 8.94727e-17 0)
(3 -1.95276e-16 0)
(3 3.15513e-16 0)
(3 2.49464e-16 0)
(3 2.01874e-16 0)
(3 -1.70636e-16 0)
(3 -3.93546e-16 0)
(3 1.53117e-15 0)
(3 2.11808e-15 0)
(3 2.50518e-15 0)
(3 1.86967e-15 0)
(3 5.94591e-16 0)
(3 1.04726e-15 0)
(3 1.201e-15 0)
(3 1.15775e-15 0)
(3 1.73271e-15 0)
(1.79008 1.24292 0)
(2.07326 1.08714 0)
(2.29709 0.937866 0)
(2.49949 0.728444 0)
(2.64082 0.5372 0)
(2.7261 0.509646 0)
(2.79721 0.413053 0)
(2.86684 0.185655 0)
(2.9011 0.100449 0)
(2.94025 0.106777 0)
(2.99838 0.0357917 0)
(3.02419 -0.0426788 0)
(3.04047 -0.0665449 0)
(3.04519 -0.0671221 0)
(3.04714 -0.0637726 0)
(3.04659 -0.0604952 0)
(3.05684 -0.0577121 0)
(3.07269 -0.0595783 0)
(3.07983 -0.0602962 0)
(3.07804 -0.0497249 0)
(3.08671 -0.0325729 0)
(3.11006 -0.00595529 0)
(3.11785 0.0228319 0)
(3.10453 0.0328209 0)
(3.094 0.0387819 0)
(3.08265 0.0411739 0)
(3.05299 0.0327996 0)
(3.01611 0.0112516 0)
(3.00112 0.000742258 0)
(3.00001 3.53862e-06 0)
(3 -5.79118e-07 0)
(3 -5.55672e-07 0)
(3 -4.26159e-07 0)
(3 -1.95602e-07 0)
(3 -2.8588e-08 0)
(3 -5.05779e-10 0)
(3 2.32206e-11 0)
(3 2.15555e-11 0)
(3 1.12108e-11 0)
(3 1.66831e-12 0)
(3 2.40626e-14 0)
(3 -1.82298e-15 0)
(3 -2.12363e-16 0)
(3 1.59433e-15 0)
(3 2.03085e-15 0)
(3 2.39509e-15 0)
(3 6.16704e-16 0)
(3 -1.03951e-16 0)
(3 8.71023e-16 0)
(3 5.53611e-16 0)
(3 -7.20066e-16 0)
(3 -1.53733e-15 0)
(3 -4.6395e-17 0)
(3 -7.13362e-16 0)
(3 -4.38439e-16 0)
(3 -4.61938e-16 0)
(3 -1.43044e-16 0)
(3 -4.99857e-17 0)
(3 -2.96369e-16 0)
(3 -5.49581e-16 0)
(3 -1.57514e-16 0)
(3 -3.10293e-16 0)
(3 4.45957e-16 0)
(3 1.61694e-15 0)
(3 1.47441e-15 0)
(3 1.50955e-15 0)
(3 1.89072e-15 0)
(3 1.62513e-15 0)
(3 7.92977e-16 0)
(3 -4.12287e-16 0)
(3 -7.47778e-16 0)
(3 -1.72633e-17 0)
(3 4.10733e-16 0)
(3 6.02041e-16 0)
(3 8.19622e-16 0)
(3 9.76521e-16 0)
(3 6.63145e-16 0)
(3 -4.98257e-17 0)
(3 2.10299e-17 0)
(3 -1.32104e-16 0)
(3 -5.28498e-16 0)
(3 5.00298e-17 0)
(3 6.42505e-16 0)
(3 3.81362e-16 0)
(3 5.42847e-19 0)
(3 -3.16774e-16 0)
(3 -3.44326e-16 0)
(3 1.36001e-15 0)
(3 1.78174e-15 0)
(3 1.69165e-15 0)
(3 6.48162e-16 0)
(3 2.53688e-16 0)
(3 1.26025e-15 0)
(3 2.22897e-15 0)
(3 2.16564e-15 0)
(3 1.75528e-15 0)
(1.86305 1.24527 0)
(2.01689 1.22354 0)
(2.21657 1.10866 0)
(2.39867 0.933305 0)
(2.53582 0.76353 0)
(2.62859 0.680728 0)
(2.73299 0.542927 0)
(2.84369 0.320878 0)
(2.88276 0.242487 0)
(2.92487 0.217742 0)
(3.01312 0.114435 0)
(3.03265 0.0183315 0)
(3.06269 -0.0504089 0)
(3.07951 -0.0938857 0)
(3.09436 -0.108346 0)
(3.11367 -0.104915 0)
(3.14301 -0.0914313 0)
(3.16415 -0.0668371 0)
(3.16371 -0.0350804 0)
(3.15275 0.00467617 0)
(3.14513 0.0466037 0)
(3.14181 0.0770667 0)
(3.13366 0.0840017 0)
(3.12597 0.08234 0)
(3.10195 0.0726903 0)
(3.06275 0.0506813 0)
(3.02145 0.0180128 0)
(3.0019 0.00142279 0)
(3.00002 9.5288e-06 0)
(3 -4.35725e-07 0)
(3 -4.42194e-07 0)
(3 -3.38094e-07 0)
(3 -1.4824e-07 0)
(3 -2.17754e-08 0)
(3 -4.35817e-10 0)
(3 1.32142e-11 0)
(3 1.37622e-11 0)
(3 7.76289e-12 0)
(3 1.31009e-12 0)
(3 2.64047e-14 0)
(3 -3.84954e-16 0)
(3 3.93135e-16 0)
(3 1.42252e-15 0)
(3 1.51314e-15 0)
(3 1.38909e-15 0)
(3 1.26134e-15 0)
(3 9.66023e-16 0)
(3 1.36551e-15 0)
(3 1.19198e-15 0)
(3 -1.32674e-15 0)
(3 -2.07212e-15 0)
(3 -1.87183e-15 0)
(3 -1.4782e-15 0)
(3 -1.00932e-15 0)
(3 -8.96527e-16 0)
(3 6.02816e-17 0)
(3 -9.40405e-17 0)
(3 -5.93282e-16 0)
(3 -2.26302e-15 0)
(3 -3.45309e-15 0)
(3 -2.16464e-15 0)
(3 -7.28593e-16 0)
(3 9.24848e-16 0)
(3 1.84879e-15 0)
(3 2.36992e-15 0)
(3 2.10548e-15 0)
(3 7.1509e-16 0)
(3 3.08335e-16 0)
(3 2.59856e-16 0)
(3 -3.06957e-16 0)
(3 -1.94825e-16 0)
(3 4.12535e-17 0)
(3 3.02104e-17 0)
(3 1.63357e-16 0)
(3 1.70448e-16 0)
(3 3.0223e-17 0)
(3 -1.21215e-16 0)
(3 -3.94859e-16 0)
(3 -8.13169e-16 0)
(3 -1.20328e-15 0)
(3 -9.60402e-16 0)
(3 -9.49737e-16 0)
(3 -1.45905e-15 0)
(3 -1.24452e-15 0)
(3 -1.24872e-15 0)
(3 -1.15123e-15 0)
(3 -2.83602e-16 0)
(3 6.2624e-16 0)
(3 1.85616e-15 0)
(3 1.77925e-15 0)
(3 8.12979e-16 0)
(3 8.0001e-16 0)
(3 1.53457e-15 0)
(3 2.16164e-15 0)
(3 2.07996e-15 0)
(3 1.12419e-15 0)
(2.01666 1.14519 0)