/*--------------------------------*- C++ -*----------------------------------*\
  =========                 |
  \\      /  F ield         | OpenFOAM: The Open Source CFD Toolbox
   \\    /   O peration     | Website:  https://openfoam.org
    \\  /    A nd           | Version:  7
     \\/     M anipulation  |
\*---------------------------------------------------------------------------*/
FoamFile
{
    version     2.0;
    format      ascii;
    class       volScalarField;
    location    "1.3";
    object      p;
}
// * * * * * * * * * * * * * * * * * * * * * * * * * * * * * * * * * * * * * //

dimensions      [1 -1 -2 0 0 0 0];

internalField   nonuniform List<scalar> 
64512
(
1
1
1
1
1
1
1
1
1
1
1
1
1
1
1
1
1
1
1
1
1
1
1
1
1
1
1
1
1
1
1
1
1
1
1
1
1
1
1
1
1
1
1
1
1
1
1
1
1
1
1
1
4.68918
10.378
10.6679
10.7297
10.8038
10.8703
10.9365
11.0008
11.0626
11.1143
11.1548
11.1887
11.2168
11.2445
11.2811
11.3322
11.3889
11.4447
11.4968
11.5473
11.5999
11.6528
11.7044
11.7468
11.7795
11.8041
11.8267
11.8571
11.8928
11.9215
11.9421
11.9592
11.975
11.9887
12.005
12.0241
12.0424
12.0605
12.0801
12.1023
12.1274
12.1556
12.1791
12.2039
1
1
1
1
1
1
1
1
1
1
1
1
1
1
1
1
1
1
1
1
1
1
1
1
1
1
1
1
1
1
1
1
1
1
1
1
1
1
1
1
1
1
1
1
1
1
1
1
1
1
1
1
4.65549
10.3564
10.6657
10.7266
10.8033
10.8703
10.9362
11.0005
11.0622
11.1139
11.1535
11.1868
11.2144
11.2424
11.2793
11.3301
11.3866
11.4423
11.4946
11.5459
11.5982
11.6503
11.7002
11.7424
11.7759
11.8024
11.8267
11.8572
11.8918
11.9192
11.9397
11.9573
11.9738
11.9881
12.0042
12.0225
12.0404
12.0584
12.078
12.1004
12.1254
12.1524
12.1743
12.1971
1
1
1
1
1
1
1
1
1
1
1
1
1
1
1
1
1
1
1
1
1
1
1
1
1
1
1
1
1
1
1
1
1
1
1
1
1
1
1
1
1
1
1
1
1
1
1
1
1
1
1
1
4.57648
10.3304
10.6586
10.7197
10.7994
10.867
10.9334
10.9978
11.0596
11.1113
11.1499
11.1826
11.2096
11.2372
11.2744
11.3248
11.3818
11.4388
11.4926
11.5447
11.5956
11.645
11.6922
11.7347
11.7702
11.7995
11.8259
11.8556
11.8883
11.915
11.9361
11.9544
11.971
11.9859
12.0021
12.0197
12.0374
12.0548
12.0737
12.0958
12.121
12.1473
12.168
12.1889
1
1
1
1
1
1
1
1
1
1
1
1
1
1
1
1
1
1
1
1
1
1
1
1
1
1
1
1
1
1
1
1
1
1
1
1
1
1
1
1
1
1
1
1
1
1
1
1
1
1
1
1
4.4515
10.2948
10.6534
10.7143
10.795
10.8622
10.9281
10.9925
11.0547
11.1068
11.1448
11.1773
11.2038
11.2305
11.2676
11.317
11.3743
11.4332
11.4901
11.5439
11.5934
11.6389
11.6816
11.7236
11.7613
11.7945
11.8241
11.8533
11.8832
11.909
11.9308
11.9497
11.9667
11.9822
11.9979
12.0149
12.0324
12.0494
12.0675
12.0887
12.1133
12.1388
12.1585
12.1777
1
1
1
1
1
1
1
1
1
1
1
1
1
1
1
1
1
1
1
1
1
1
1
1
1
1
1
1
1
1
1
1
1
1
1
1
1
1
1
1
1
1
1
1
1
1
1
1
1
1
1
1
4.29152
10.2434
10.6456
10.7057
10.7872
10.8541
10.92
10.9847
11.0478
11.1
11.1378
11.1704
11.1971
11.2227
11.2596
11.3076
11.3643
11.4253
11.4868
11.5435
11.5922
11.6335
11.6704
11.7103
11.7501
11.7874
11.82
11.8487
11.8761
11.9009
11.9234
11.9435
11.9611
11.9765
11.9914
12.0079
12.0253
12.0421
12.0591
12.0787
12.1019
12.1269
12.1469
12.1657
1
1
1
1
1
1
1
1
1
1
1
1
1
1
1
1
1
1
1
1
1
1
1
1
1
1
1
1
1
1
1
1
1
1
1
1
1
1
1
1
1
1
1
1
1
1
1
1
1
1
1
1
4.09987
10.1682
10.6367
10.6957
10.7782
10.8449
10.911
10.976
11.0397
11.0903
11.1278
11.161
11.189
11.2148
11.2518
11.2983
11.3534
11.4156
11.4815
11.5413
11.5902
11.6285
11.6601
11.6967
11.7371
11.7773
11.8124
11.841
11.8663
11.8903
11.9137
11.9352
11.9535
11.9686
11.9825
11.9984
12.016
12.0326
12.0479
12.0649
12.0864
12.1115
12.1337
12.1539
1
1
1
1
1
1
1
1
1
1
1
1
1
1
1
1
1
1
1
1
1
1
1
1
1
1
1
1
1
1
1
1
1
1
1
1
1
1
1
1
1
1
1
1
1
1
1
1
1
1
1
1
3.87419
10.0683
10.6271
10.6836
10.7676
10.8342
10.9008
10.9668
11.0304
11.0782
11.115
11.1486
11.1785
11.2068
11.2445
11.2893
11.3428
11.4047
11.4731
11.5355
11.5857
11.6228
11.6511
11.6838
11.723
11.7644
11.8011
11.8299
11.8538
11.8771
11.9013
11.9244
11.9434
11.9583
11.9716
11.987
12.0043
12.02
12.033
12.0466
12.0667
12.0932
12.1193
12.1427
1
1
1
1
1
1
1
1
1
1
1
1
1
1
1
1
1
1
1
1
1
1
1
1
1
1
1
1
1
1
1
1
1
1
1
1
1
1
1
1
1
1
1
1
1
1
1
1
1
1
1
1
3.61751
9.94108
10.6185
10.6703
10.7551
10.8221
10.8894
10.9576
11.0201
11.0639
11.0998
11.134
11.1642
11.196
11.2355
11.2796
11.3322
11.3926
11.4614
11.5251
11.577
11.6149
11.6421
11.6715
11.7081
11.7488
11.7859
11.815
11.8383
11.8613
11.886
11.9104
11.9303
11.9457
11.9593
11.9742
11.9904
12.0042
12.0142
12.0244
12.0432
12.0725
12.1036
12.1314
1
1
1
1
1
1
1
1
1
1
1
1
1
1
1
1
1
1
1
1
1
1
1
1
1
1
1
1
1
1
1
1
1
1
1
1
1
1
1
1
1
1
1
1
1
1
1
1
1
1
1
1
3.33718
9.77886
10.61
10.6552
10.7412
10.8082
10.8764
10.9473
11.0069
11.0497
11.085
11.1199
11.1474
11.1811
11.2225
11.2675
11.3197
11.3781
11.4462
11.5097
11.5633
11.6029
11.6309
11.6586
11.6922
11.7308
11.767
11.7963
11.8195
11.8426
11.8677
11.8929
11.9141
11.9309
11.9456
11.9604
11.975
11.9856
11.9919
11.999
12.0171
12.0496
12.086
12.1182
1
1
1
1
1
1
1
1
1
1
1
1
1
1
1
1
1
1
1
1
1
1
1
1
1
1
1
1
1
1
1
1
1
1
1
1
1
1
1
1
1
1
1
1
1
1
1
1
1
1
1
1
3.03906
9.58172
10.6018
10.6384
10.7258
10.7938
10.8635
10.9352
10.9932
11.0374
11.0743
11.1072
11.1315
11.1644
11.2055
11.2514
11.3034
11.3609
11.4276
11.4904
11.5452
11.5864
11.6164
11.6441
11.6753
11.7106
11.7452
11.7742
11.7976
11.821
11.8461
11.8719
11.8947
11.9136
11.9301
11.9449
11.9576
11.9646
11.967
11.9718
11.99
12.0253
12.0659
12.1019
1
1
1
1
1
1
1
1
1
1
1
1
1
1
1
1
1
1
1
1
1
1
1
1
1
1
1
1
1
1
1
1
1
1
1
1
1
1
1
1
1
1
1
1
1
1
1
1
1
1
1
1
2.69863
9.33982
10.5921
10.6245
10.7126
10.7801
10.8512
10.9193
10.9785
11.0272
11.0662
11.0954
11.1192
11.1485
11.1865
11.2315
11.2831
11.3411
11.4062
11.4679
11.5227
11.5651
11.5975
11.6269
11.6569
11.6885
11.7207
11.749
11.7729
11.7963
11.8212
11.8474
11.8719
11.8932
11.9117
11.9272
11.9381
11.9415
11.9406
11.9443
11.9631
12
12.0422
12.0801
1
1
1
1
1
1
1
1
1
1
1
1
1
1
1
1
1
1
1
1
1
1
1
1
1
1
1
1
1
1
1
1
1
1
1
1
1
1
1
1
1
1
1
1
1
1
1
1
1
1
1
1
2.34369
9.05266
10.5804
10.6114
10.6966
10.7651
10.8369
10.8979
10.961
11.0151
11.0554
11.0837
11.1082
11.1337
11.1674
11.2098
11.2603
11.3194
11.3833
11.4432
11.4968
11.54
11.5747
11.6068
11.6367
11.6654
11.6954
11.7221
11.7466
11.7694
11.7936
11.8196
11.8455
11.8689
11.8897
11.9061
11.9156
11.9165
11.9138
11.9174
11.9367
11.9734
12.014
12.0511
1
1
1
1
1
1
1
1
1
1
1
1
1
1
1
1
1
1
1
1
1
1
1
1
1
1
1
1
1
1
1
1
1
1
1
1
1
1
1
1
1
1
1
1
1
1
1
1
1
1
1
1
2.00502
8.69114
10.567
10.5982
10.6816
10.7522
10.8199
10.8787
10.9402
10.9966
11.0397
11.0703
11.096
11.1187
11.1485
11.1878
11.2371
11.2971
11.3592
11.4166
11.4682
11.5116
11.5488
11.5841
11.6148
11.6417
11.669
11.6933
11.7185
11.7403
11.7634
11.7888
11.8153
11.8405
11.8632
11.8805
11.8893
11.8896
11.8871
11.8915
11.9108
11.9452
11.9815
12.0154
1
1
1
1
1
1
1
1
1
1
1
1
1
1
1
1
1
1
1
1
1
1
1
1
1
1
1
1
1
1
1
1
1
1
1
1
1
1
1
1
1
1
1
1
1
1
1
1
1
1
1
1
1.68487
8.24278
10.554
10.5854
10.6657
10.7371
10.7998
10.8575
10.9194
10.976
11.022
11.0549
11.0807
11.101
11.1278
11.1641
11.2122
11.2734
11.3345
11.3899
11.4394
11.482
11.5206
11.5578
11.5898
11.6156
11.6402
11.663
11.6887
11.7102
11.7321
11.756
11.7819
11.8077
11.8311
11.8492
11.8582
11.8596
11.8592
11.8654
11.8842
11.9145
11.9446
11.9731
1
1
1
1
1
1
1
1
1
1
1
1
1
1
1
1
1
1
1
1
1
1
1
1
1
1
1
1
1
1
1
1
1
1
1
1
1
1
1
1
1
1
1
1
1
1
1
1
1
1
1
1
1.40227
7.72685
10.5425
10.5694
10.6503
10.7179
10.7796
10.8413
10.9023
10.9569
11.0036
11.0369
11.061
11.0795
11.1051
11.14
11.1881
11.2493
11.3083
11.3612
11.4081
11.4497
11.4891
11.5282
11.5617
11.5872
11.6098
11.6318
11.6567
11.6785
11.6992
11.7212
11.7453
11.7703
11.7932
11.8113
11.8215
11.8258
11.8292
11.8378
11.8561
11.8814
11.9043
11.926
1
1
1
1
1
1
1
1
1
1
1
1
1
1
1
1
1
1
1
1
1
1
1
1
1
1
1
1
1
1
1
1
1
1
1
1
1
1
1
1
1
1
1
1
1
1
1
1
1
1
1
1
1.13434
7.08855
10.5212
10.5674
10.6483
10.7096
10.762
10.8166
10.8742
10.9292
10.9786
11.0154
11.0413
11.06
11.0841
11.1159
11.1623
11.2221
11.2796
11.3318
11.3774
11.4183
11.4572
11.4969
11.5307
11.5552
11.5763
11.5974
11.6215
11.644
11.6645
11.6849
11.7068
11.7296
11.7504
11.7677
11.7791
11.787
11.7948
11.8067
11.8247
11.8449
11.8603
11.8744
1
1
1
1
1
1
1
1
1
1
1
1
1
1
1
1
1
1
1
1
1
1
1
1
1
1
1
1
1
1
1
1
1
1
1
1
1
1
1
1
1
1
1
1
1
1
1
1
1
1
1
1
1.005
6.37105
10.4524
10.5277
10.6093
10.6757
10.7335
10.7923
10.8513
10.9091
10.9611
10.9998
11.0239
11.0405
11.0607
11.0896
11.1349
11.1933
11.25
11.3026
11.3478
11.3881
11.4251
11.4636
11.4967
11.5197
11.5395
11.5595
11.5831
11.6062
11.6268
11.646
11.6654
11.6849
11.7028
11.7184
11.7305
11.7418
11.7543
11.77
11.7885
11.8045
11.8131
11.82
1
1
1
1
1
1
1
1
1
1
1
1
1
1
1
1
1
1
1
1
1
1
1
1
1
1
1
1
1
1
1
1
1
1
1
1
1
1
1
1
1
1
1
1
1
1
1
1
1
1
1
1
1.00002
5.5265
10.3307
10.5
10.5785
10.6454
10.709
10.77
10.8283
10.8857
10.9357
10.9756
11.0001
11.018
11.0361
11.0637
11.1076
11.1627
11.218
11.2711
11.3174
11.3576
11.393
11.4296
11.4612
11.4815
11.4993
11.5175
11.5401
11.5632
11.5841
11.603
11.621
11.6373
11.6521
11.6654
11.6772
11.6907
11.7068
11.7263
11.7458
11.7588
11.7618
11.7624
1
1
1
1
1
1
1
1
1
1
1
1
1
1
1
1
1
1
1
1
1
1
1
1
1
1
1
1
1
1
1
1
1
1
1
1
1
1
1
1
1
1
1
1
1
1
1
1
1
1
1
1
1
4.65114
10.1541
10.4747
10.5545
10.6223
10.6859
10.746
10.805
10.8627
10.9108
10.9505
10.9745
10.9933
11.0112
11.0376
11.0784
11.1285
11.1815
11.2351
11.2841
11.3252
11.3607
11.3952
11.4245
11.4412
11.4564
11.4726
11.4939
11.5162
11.5372
11.5562
11.5733
11.5864
11.5975
11.6077
11.6181
11.6329
11.6518
11.6744
11.6954
11.7068
11.7063
11.7027
1
1
1
1
1
1
1
1
1
1
1
1
1
1
1
1
1
1
1
1
1
1
1
1
1
1
1
1
1
1
1
1
1
1
1
1
1
1
1
1
1
1
1
1
1
1
1
1
1
1
1
1
1
3.80222
9.86854
10.4588
10.5284
10.6013
10.6654
10.7256
10.7831
10.8376
10.8835
10.9221
10.9478
10.9666
10.9841
11.0093
11.047
11.092
11.1427
11.1951
11.2451
11.2883
11.3256
11.3577
11.3843
11.3986
11.4112
11.4252
11.4451
11.4655
11.486
11.5053
11.5216
11.5314
11.5388
11.5453
11.5543
11.5704
11.5911
11.6153
11.6363
11.6463
11.6435
11.6375
1
1
1
1
1
1
1
1
1
1
1
1
1
1
1
1
1
1
1
1
1
1
1
1
1
1
1
1
1
1
1
1
1
1
1
1
1
1
1
1
1
1
1
1
1
1
1
1
1
1
1
1
1
3.00584
9.45235
10.4321
10.5296
10.6074
10.6649
10.7193
10.7709
10.8191
10.8603
10.8932
10.9171
10.9346
10.9519
10.9761
11.011
11.0525
11.1017
11.1522
11.2014
11.2457
11.2848
11.3157
11.3385
11.3525
11.3631
11.3753
11.3928
11.4104
11.4293
11.4494
11.4649
11.4714
11.4754
11.4782
11.4858
11.5024
11.5237
11.5479
11.568
11.5765
11.5727
11.5663
1
1
1
1
1
1
1
1
1
1
1
1
1
1
1
1
1
1
1
1
1
1
1
1
1
1
1
1
1
1
1
1
1
1
1
1
1
1
1
1
1
1
1
1
1
1
1
1
1
1
1
1
1
2.24639
8.88589
10.4688
10.5201
10.5843
10.6368
10.69
10.74
10.7872
10.8288
10.8609
10.8844
10.9008
10.9174
10.9395
10.9708
11.0095
11.0573
11.1064
11.1541
11.1987
11.2386
11.2691
11.2884
11.3016
11.3099
11.3198
11.3344
11.3505
11.3691
11.3891
11.4031
11.4073
11.4074
11.4068
11.4139
11.4304
11.4506
11.4732
11.4902
11.4957
11.4903
11.484
1
1
1
1
1
1
1
1
1
1
1
1
1
1
1
1
1
1
1
1
1
1
1
1
1
1
1
1
1
1
1
1
1
1
1
1
1
1
1
1
1
1
1
1
1
1
1
1
1
1
1
1
1
1.58189
8.18558
10.5489
10.5288
10.5772
10.6219
10.6695
10.715
10.7593
10.801
10.8361
10.8599
10.8747
10.8873
10.9013
10.9255
10.9615
11.0099
11.0601
11.1084
11.1529
11.1913
11.2191
11.2336
11.244
11.2502
11.2586
11.2712
11.2865
11.3054
11.3241
11.3347
11.3372
11.3339
11.3305
11.3371
11.3516
11.3694
11.3887
11.4017
11.4036
11.3964
11.3906
1
1
1
1
1
1
1
1
1
1
1
1
1
1
1
1
1
1
1
1
1
1
1
1
1
1
1
1
1
1
1
1
1
1
1
1
1
1
1
1
1
1
1
1
1
1
1
1
1
1
1
1
1
1.14077
7.33894
10.4906
10.4509
10.5068
10.5627
10.6182
10.6673
10.7155
10.7614
10.8018
10.8318
10.8493
10.8599
10.8677
10.8875
10.9203
10.9661
11.0118
11.057
11.0995
11.137
11.1641
11.1761
11.1828
11.1856
11.1929
11.2045
11.2189
11.2369
11.2528
11.259
11.26
11.2545
11.2502
11.2561
11.2673
11.2812
11.2954
11.302
11.2979
11.2865
11.2794
1
1
1
1
1
1
1
1
1
1
1
1
1
1
1
1
1
1
1
1
1
1
1
1
1
1
1
1
1
1
1
1
1
1
1
1
1
1
1
1
1
1
1
1
1
1
1
1
1
1
1
1
1
1.00376
6.24265
10.3297
10.3813
10.4533
10.5138
10.5732
10.627
10.6794
10.7254
10.7642
10.7929
10.8109
10.822
10.8299
10.8494
10.8792
10.9216
10.9623
11.0045
11.0448
11.0814
11.108
11.1177
11.1189
11.1169
11.1234
11.1352
11.1487
11.1633
11.1741
11.1749
11.1737
11.1681
11.1646
11.1675
11.1723
11.1797
11.1872
11.1872
11.1773
11.1615
11.1527
1
1
1
1
1
1
1
1
1
1
1
1
1
1
1
1
1
1
1
1
1
1
1
1
1
1
1
1
1
1
1
1
1
1
1
1
1
1
1
1
1
1
1
1
1
1
1
1
1
1
1
1
1
1.00001
5.13105
10.1017
10.3128
10.4103
10.4801
10.5419
10.5981
10.6511
10.6958
10.7321
10.7576
10.7751
10.7874
10.7977
10.8171
10.8424
10.8792
10.9136
10.9513
10.9889
11.0238
11.0498
11.0576
11.0532
11.0465
11.0513
11.0628
11.0751
11.085
11.0878
11.0827
11.0782
11.0733
11.0711
11.0702
11.0678
11.0672
11.0664
11.0575
11.038
11.0139
10.9991
1
1
1
1
1
1
1
1
1
1
1
1
1
1
1
1
1
1
1
1
1
1
1
1
1
1
1
1
1
1
1
1
1
1
1
1
1
1
1
1
1
1
1
1
1
1
1
1
1
1
1
1
1
1
4.01099
9.70541
10.274
10.3662
10.4494
10.5136
10.5696
10.6222
10.6666
10.701
10.7237
10.7412
10.7545
10.7655
10.7837
10.8055
10.835
10.8643
10.8976
10.9321
10.9645
10.9888
10.9947
10.9857
10.9753
10.9773
10.9869
10.9969
11.0015
10.9952
10.9832
10.9749
10.9703
10.9673
10.9601
10.9469
10.9335
10.9209
10.9018
10.8738
10.8429
10.8242
1
1
1
1
1
1
1
1
1
1
1
1
1
1
1
1
1
1
1
1
1
1
1
1
1
1
1
1
1
1
1
1
1
1
1
1
1
1
1
1
1
1
1
1
1
1
1
1
1
1
1
1
1
1
2.8539
9.07856
10.3461
10.3696
10.4362
10.4878
10.5369
10.5876
10.6318
10.6653
10.6866
10.7035
10.7174
10.7271
10.7433
10.7623
10.7855
10.8116
10.8416
10.8736
10.9032
10.9244
10.9278
10.9166
10.9034
10.9014
10.9075
10.9129
10.9112
10.896
10.8778
10.8653
10.8589
10.851
10.8337
10.8077
10.7811
10.7572
10.726
10.6821
10.6345
10.6
1
1
1
1
1
1
1
1
1
1
1
1
1
1
1
1
1
1
1
1
1
1
1
1
1
1
1
1
1
1
1
1
1
1
1
1
1
1
1
1
1
1
1
1
1
1
1
1
1
1
1
1
1
1
1.78441
8.38524
10.4506
10.3324
10.3816
10.4342
10.4884
10.5443
10.59
10.6239
10.6466
10.6642
10.6777
10.6824
10.6929
10.7073
10.7271
10.753
10.7821
10.8123
10.839
10.8568
10.8573
10.8447
10.8297
10.8237
10.8232
10.8221
10.8119
10.7901
10.7669
10.7502
10.7386
10.7215
10.6901
10.6466
10.6006
10.555
10.5008
10.4372
10.3739
10.3374
1
1
1
1
1
1
1
1
1
1
1
1
1
1
1
1
1
1
1
1
1
1
1
1
1
1
1
1
1
1
1
1
1
1
1
1
1
1
1
1
1
1
1
1
1
1
1
1
1
1
1
1
1
1
1.0864
7.31
10.4316
10.3298
10.3763
10.417
10.4621
10.5059
10.5416
10.5729
10.5979
10.6182
10.6322
10.6331
10.6373
10.6468
10.6629
10.6903
10.7196
10.7486
10.7727
10.7872
10.7853
10.7717
10.7553
10.7434
10.7343
10.7231
10.7043
10.6779
10.6508
10.6285
10.6082
10.5773
10.5269
10.4617
10.3925
10.3237
10.2468
10.1554
10.0488
9.95337
1
1
1
1
1
1
1
1
1
1
1
1
1
1
1
1
1
1
1
1
1
1
1
1
1
1
1
1
1
1
1
1
1
1
1
1
1
1
1
1
1
1
1
1
1
1
1
1
1
1
1
1
1
1
1.00083
5.9032
10.0756
10.2366
10.3246
10.3689
10.405
10.4451
10.4822
10.5212
10.5527
10.577
10.589
10.5841
10.5796
10.5821
10.5933
10.6193
10.6491
10.6773
10.6994
10.7117
10.7089
10.6948
10.6762
10.6576
10.6386
10.6169
10.5905
10.5599
10.5286
10.4987
10.4664
10.4176
10.3461
10.2567
10.1587
10.051
9.91719
9.7434
9.56261
9.42529
1
1
1
1
1
1
1
1
1
1
1
1
1
1
1
1
1
1
1
1
1
1
1
1
1
1
1
1
1
1
1
1
1
1
1
1
1
1
1
1
1
1
1
1
1
1
1
1
1
1
1
1
1
1
0.999999
4.5346
9.7995
10.2072
10.2901
10.3438
10.3757
10.3983
10.4314
10.4706
10.5045
10.5294
10.5405
10.5362
10.5269
10.5238
10.5302
10.5503
10.5779
10.6042
10.6234
10.6328
10.6277
10.6115
10.5902
10.5655
10.5382
10.5084
10.4754
10.4396
10.4006
10.3599
10.3121
10.2433
10.1494
10.0322
9.89398
9.73273
9.53593
9.28647
9.00053
8.81582
1
1
1
1
1
1
1
1
1
1
1
1
1
1
1
1
1
1
1
1
1
1
1
1
1
1
1
1
1
1
1
1
1
1
1
1
1
1
1
1
1
1
1
1
1
1
1
1
1
1
1
1
1
1
1
3.17493
9.16321
10.2073
10.2651
10.3015
10.328
10.3574
10.3927
10.43
10.4636
10.4863
10.4951
10.4896
10.4745
10.4662
10.4686
10.4833
10.5072
10.5326
10.549
10.5546
10.5453
10.5252
10.5002
10.4695
10.4356
10.4006
10.362
10.3189
10.2694
10.2134
10.1453
10.0563
9.93884
9.79243
9.61291
9.39289
9.09966
8.65439
7.7912
5.79327
1
1
1
1
1
1
1
1
1
1
1
1
1
1
1
1
1
1
1
1
1
1
1
1
1
1
1
1
1
1
1
1
1
1
1
1
1
1
1
1
1
1
1
1
1
1
1
1
1
1
1
1
1
1
1
1.94233
8.45364
10.276
10.2094
10.2384
10.2823
10.3222
10.3575
10.3914
10.4222
10.4413
10.4476
10.4422
10.4246
10.4121
10.4096
10.4191
10.438
10.4598
10.4732
10.475
10.4619
10.4372
10.4079
10.3717
10.3337
10.2959
10.252
10.2
10.1367
10.0612
9.97043
9.85902
9.71814
9.54216
9.31931
9.02597
8.61562
7.99092
6.91859
4.73716
1
1
1
1
1
1
1
1
1
1
1
1
1
1
1
1
1
1
1
1
1
1
1
1
1
1
1
1
1
1
1
1
1
1
1
1
1
1
1
1
1
1
1
1
1
1
1
1
1
1
1
1
1
1
1
1.09671
7.25319
10.3089
10.2047
10.2042
10.2388
10.2841
10.3228
10.3551
10.3821
10.3979
10.4015
10.3953
10.3752
10.3566
10.3482
10.352
10.366
10.3832
10.3944
10.3933
10.3771
10.3484
10.3149
10.2737
10.2326
10.1924
10.1434
10.0814
10.003
9.90654
9.79188
9.65692
9.49222
9.28768
9.02236
8.67179
8.16645
7.49806
6.19426
4.36177
1
1
1
1
1
1
1
1
1
1
1
1
1
1
1
1
1
1
1
1
1
1
1
1
1
1
1
1
1
1
1
1
1
1
1
1
1
1
1
1
1
1
1
1
1
1
1
1
1
1
1
1
1
1
1
1.00097
5.69293
9.85896
10.0396
10.1362
10.1907
10.2359
10.2751
10.3076
10.3332
10.3483
10.3509
10.3443
10.3227
10.299
10.2853
10.2842
10.2928
10.3046
10.3137
10.3103
10.2914
10.2594
10.2211
10.1751
10.1299
10.0861
10.0322
9.96117
9.86861
9.75277
9.61525
9.45747
9.26887
9.03877
8.7384
8.34593
7.79643
7.02958
5.79361
4.31319
1
1
1
1
1
1
1
1
1
1
1
1
1
1
1
1
1
1
1
1
1
1
1
1
1
1
1
1
1
1
1
1
1
1
1
1
1
1
1
1
1
1
1
1
1
1
1
1
1
1
1
1
1
1
1
0.999996
4.11388
9.47912
10.0211
10.1019
10.1698
10.2062
10.2318
10.255
10.276
10.292
10.2977
10.2925
10.2719
10.244
10.2244
10.2166
10.2181
10.2238
10.2287
10.2242
10.2048
10.171
10.1285
10.0781
10.0274
9.97756
9.91755
9.83771
9.73246
9.60095
9.44484
9.26698
9.05649
8.80221
8.4762
8.0487
7.48539
6.69074
5.61726
4.41334
1
1
1
1
1
1
1
1
1
1
1
1
1
1
1
1
1
1
1
1
1
1
1
1
1
1
1
1
1
1
1
1
1
1
1
1
1
1
1
1
1
1
1
1
1
1
1
1
1
1
1
1
1
1
1
0.999999
2.54375
8.72239
10.0864
10.0964
10.139
10.1614
10.1808
10.1978
10.2151
10.2318
10.241
10.2374
10.2191
10.1897
10.1659
10.1517
10.1469
10.1457
10.145
10.139
10.1195
10.0846
10.038
9.98265
9.92454
9.86593
9.79806
9.7096
9.59364
9.45092
9.28215
9.08867
8.86058
8.58534
8.24121
7.79804
7.23271
6.47365
5.5664
4.55557
1
1
1
1
1
1
1
1
1
1
1
1
1
1
1
1
1
1
1
1
1
1
1
1
1
1
1
1
1
1
1
1
1
1
1
1
1
1
1
1
1
1
1
1
1
1
1
1
1
1
1
1
1
1
1
1
1.31676
7.68283
10.2029
10.1029
10.0832
10.1029
10.1222
10.1377
10.1536
10.1705
10.182
10.1812
10.167
10.1384
10.1114
10.0899
10.0775
10.069
10.0623
10.0536
10.0337
9.99813
9.94884
9.8894
9.82408
9.75537
9.67722
9.57884
9.4533
9.30306
9.1273
8.9238
8.68335
8.39298
8.03718
7.59186
7.03351
6.34173
5.57101
4.70478
1
1
1
1
1
1
1
1
1
1
1
1
1
1
1
1
1
1
1
1
1
1
1
1
1
1
1
1
1
1
1
1
1
1
1
1
1
1
1
1
1
1
1
1
1
1
1
1
1
1
1
1
1
1
1
1
1.0103
6.15571
9.81498
9.93026
9.9869
10.0294
10.0604
10.0828
10.0989
10.1135
10.1237
10.1241
10.1139
10.089
10.0609
10.0337
10.0136
9.99811
9.98523
9.97137
9.94777
9.90962
9.8575
9.79537
9.72521
9.64777
9.55831
9.44893
9.31448
9.15842
8.9785
8.76974
8.52296
8.22486
7.86506
7.42349
6.88893
6.27196
5.59264
4.83208
1
1
1
1
1
1
1
1
1
1
1
1
1
1
1
1
1
1
1
1
1
1
1
1
1
1
1
1
1
1
1
1
1
1
1
1
1
1
1
1
1
1
1
1
1
1
1
1
1
1
1
1
1
1
1
1
0.999982
4.32491
9.40623
9.89333
9.9603
10.0027
10.0268
10.0442
10.0564
10.0663
10.0726
10.0728
10.0653
10.0439
10.0138
9.98114
9.95268
9.93073
9.91185
9.89096
9.86097
9.81824
9.76331
9.69955
9.62626
9.54185
9.44185
9.32213
9.18039
9.01975
8.83678
8.62524
8.37674
8.07821
7.72094
7.29013
6.78971
6.23415
5.62077
4.94931
1
1
1
1
1
1
1
1
1
1
1
1
1
1
1
1
1
1
1
1
1
1
1
1
1
1
1
1
1
1
1
1
1
1
1
1
1
1
1
1
1
1
1
1
1
1
1
1
1
1
1
1
1
1
1
1
0.999995
2.53795
8.71945
9.92656
9.93026
9.95897
9.98933
10.0062
10.0129
10.0163
10.0173
10.0161
10.0114
9.99446
9.96483
9.92887
9.89372
9.86529
9.84022
9.8119
9.77455
9.72601
9.66753
9.60189
9.52623
9.43664
9.32841
9.20069
9.05397
8.88958
8.7032
8.48889
8.24031
7.94643
7.60158
7.18636
6.71475
6.21285
5.65327
5.06728
1
1
1
1
1
1
1
1
1
1
1
1
1
1
1
1
1
1
1
1
1
1
1
1
1
1
1
1
1
1
1
1
1
1
1
1
1
1
1
1
1
1
1
1
1
1
1
1
1
1
1
1
1
1
1
1
0.999999
1.21306
7.47456
10.0182
9.91966
9.91748
9.93975
9.95638
9.96098
9.96151
9.95994
9.95871
9.9555
9.94115
9.91107
9.87094
9.82864
9.79378
9.76304
9.72973
9.68792
9.63611
9.57482
9.50614
9.42614
9.33026
9.21492
9.08191
8.93315
8.76759
8.57947
8.36294
8.114
7.82473
7.50033
7.09931
6.6618
6.20702
5.69146
5.17585
1
1
1
1
1
1
1
1
1
1
1
1
1
1
1
1
1
1
1
1
1
1
1
1
1
1
1
1
1
1
1
1
1
1
1
1
1
1
1
1
1
1
1
1
1
1
1
1
1
1
1
1
1
1
1
1
1
1.00428
5.70061
9.53997
9.7591
9.85734
9.89604
9.90464
9.90593
9.903
9.89852
9.89664
9.89396
9.88231
9.85313
9.81041
9.76158
9.71845
9.68077
9.64322
9.60001
9.5481
9.48546
9.41348
9.32801
9.22529
9.10393
8.96721
8.81746
8.65244
8.4648
8.24817
7.99952
7.7133
7.40421
7.02312
6.62993
6.20686
5.73009
5.26566
1
1
1
1
1
1
1
1
1
1
1
1
1
1
1
1
1
1
1
1
1
1
1
1
1
1
1
1
1
1
1
1
1
1
1
1
1
1
1
1
1
1
1
1
1
1
1
1
1
1
1
1
1
1
1
1
1
0.999974
3.63959
9.09741
9.78102
9.82875
9.85088
9.86193
9.86169
9.85458
9.8454
9.83944
9.83315
9.82104
9.7919
9.74722
9.69291
9.6408
9.59529
9.55376
9.51125
9.46186
9.39999
9.32484
9.23276
9.12265
8.99608
8.85641
8.70566
8.54155
8.35631
8.14315
7.89725
7.61617
7.31221
6.9575
6.60491
6.20297
5.76828
5.34126
1
1
1
1
1
1
1
1
1
1
1
1
1
1
1
1
1
1
1
1
1
1
1
1
1
1
1
1
1
1
1
1
1
1
1
1
1
1
1
1
1
1
1
1
1
1
1
1
1
1
1
1
1
1
1
1
1
0.999995
1.84715
8.29455
9.87087
9.78713
9.79059
9.80324
9.80406
9.79792
9.78774
9.77893
9.76968
9.757
9.73016
9.68669
9.62989
9.56938
9.5145
9.46655
9.42261
9.37509
9.315
9.23804
9.14068
9.02492
8.89513
8.75383
8.60209
8.43742
8.2535
8.04416
7.80438
7.53224
7.22959
6.9036
6.57696
6.19347
5.80555
5.40924
1
1
1
1
1
1
1
1
1
1
1
1
1
1
1
1
1
1
1
1
1
1
1
1
1
1
1
1
1
1
1
1
1
1
1
1
1
1
1
1
1
1
1
1
1
1
1
1
1
1
1
1
1
1
1
1
1
0.999999
1.06497
6.68078
9.65154
9.68031
9.71712
9.73546
9.74151
9.74087
9.73191
9.7195
9.70521
9.6884
9.66379
9.62451
9.56961
9.50435
9.44038
9.38444
9.33638
9.28872
9.23059
9.15387
9.05385
8.93445
8.80248
8.66034
8.50779
8.34105
8.15649
7.94924
7.71769
7.45526
7.16213
6.86282
6.54431
6.18794
5.8431
5.47088
1
1
1
1
1
1
1
1
1
1
1
1
1
1
1
1
1
1
1
1
1
1
1
1
1
1
1
1
1
1
1
1
1
1
1
1
1
1
1
1
1
1
1
1
1
1
1
1
1
1
1
1
1
1
1
1
1
1
1.00028
4.45712
9.22613
9.6274
9.6655
9.68857
9.69265
9.69305
9.68417
9.66745
9.6462
9.62266
9.59885
9.56459
9.51461
9.44817
9.37538
9.30929
9.25364
9.20228
9.14452
9.06972
8.9706
8.85073
8.71804
8.57576
8.42289
8.25398
8.06868
7.86111
7.63606
7.38396
7.10979
6.8258
6.51335
6.19541
5.8738
5.51705
1
1
1
1
1
1
1
1
1
1
1
1
1
1
1
1
1
1
1
1
1
1
1
1
1
1
1
1
1
1
1
1
1
1
1
1
1
1
1
1
1
1
1
1
1
1
1
1
1
1
1
1
1
1
1
1
1
1
0.999999
2.33673
8.59752
9.67107
9.62304
9.62722
9.62922
9.63206
9.62796
9.61226
9.58691
9.55859
9.53441
9.50443
9.46071
9.3966
9.31788
9.24173
9.17637
9.11791
9.05769
8.98493
8.88934
8.77193
8.63996
8.4978
8.34491
8.17515
7.99079
7.78138
7.56332
7.32092
7.06359
6.79073
6.49772
6.20641
5.8953
5.55732
1
1
1
1
1
1
1
1
1
1
1
1
1
1
1
1
1
1
1
1
1
1
1
1
1
1
1
1
1
1
1
1
1
1
1
1
1
1
1
1
1
1
1
1
1
1
1
1
1
1
1
1
1
1
1
1
1
1
1
1.144
7.03974
9.6435
9.59394
9.57723
9.58013
9.58034
9.57446
9.55759
9.5301
9.49955
9.47394
9.44556
9.406
9.34587
9.26598
9.18294
9.10752
9.03969
8.97304
8.89942
8.80703
8.69341
8.56359
8.42236
8.27035
8.10237
7.92051
7.71251
7.50126
7.26255
7.02147
6.76754
6.49312
6.21045
5.91102
5.60045
1
1
1
1
1
1
1
1
1
1
1
1
1
1
1
1
1
1
1
1
1
1
1
1
1
1
1
1
1
1
1
1
1
1
1
1
1
1
1
1
1
1
1
1
1
1
1
1
1
1
1
1
1
1
1
1
1
1
1
1.00166
4.76035
9.16546
9.47965
9.52831
9.54599
9.54721
9.53747
9.51527
9.48268
9.44644
9.41508
9.38335
9.34487
9.29003
9.2151
9.13176
9.04892
8.97052
8.8951
8.81608
8.72427
8.61456
8.48803
8.34884
8.19812
8.03331
7.85547
7.65405
7.44487
7.21348
6.99163
6.74816
6.48309
6.21093
5.93505
5.64662
1
1
1
1
1
1
1
1
1
1
1
1
1
1
1
1
1
1
1
1
1
1
1
1
1
1
1
1
1
1
1
1
1
1
1
1
1
1
1
1
1
1
1
1
1
1
1
1
1
1
1
1
1
1
1
1
1
1
1
0.999993
2.42674
8.5551
9.54853
9.50648
9.49637
9.49159
9.48209
9.46257
9.43165
9.39313
9.3556
9.31802
9.27778
9.22691
9.15929
9.08067
8.99545
8.90884
8.8238
8.73781
8.64337
8.53572
8.41215
8.27556
8.12696
7.96563
7.79325
7.59938
7.39322
7.17722
6.96349
6.72142
6.47088
6.2179
5.96342
5.6867
1
1
1
1
1
1
1
1
1
1
1
1
1
1
1
1
1
1
1
1
1
1
1
1
1
1
1
1
1
1
1
1
1
1
1
1
1
1
1
1
1
1
1
1
1
1
1
1
1
1
1
1
1
1
1
1
1
1
1
0.999999
1.15554
6.96942
9.48121
9.43989
9.44036
9.43363
9.42179
9.40557
9.37926
9.34116
9.29718
9.25231
9.20789
9.15906
9.09829
9.02602
8.94142
8.85026
8.75668
8.6647
8.56641
8.45927
8.33853
8.20526
8.06073
7.90133
7.73347
7.54717
7.34932
7.14752
6.93333
6.70162
6.46705
6.22913
5.98525
5.71671
1
1
1
1
1
1
1
1
1
1
1
1
1
1
1
1
1
1
1
1
1
1
1
1
1
1
1
1
1
1
1
1
1
1
1
1
1
1
1
1
1
1
1
1
1
1
1
1
1
1
1
1
1
1
1
1
1
1
1
1
1.00186
4.5083
9.00482
9.3692
9.38862
9.38976
9.38012
9.36241
9.33437
9.29399
9.24422
9.19269
9.14226
9.09218
9.03444
8.96616
8.88321
8.79076
8.69311
8.59441
8.49399
8.38653
8.26776
8.13727
7.99915
7.8405
7.67564
7.49701
7.30968
7.11578
6.90539
6.68946
6.46459
6.23378
5.99475
5.74288
1
1
1
1
1
1
1
1
1
1
1
1
1
1
1
1
1
1
1
1
1
1
1
1
1
1
1
1
1
1
1
1
1
1
1
1
1
1
1
1
1
1
1
1
1
1
1
1
1
1
1
1
1
1
1
1
1
1
1
1
0.999993
2.09476
8.33503
9.50231
9.3789
9.33894
9.32374
9.30491
9.27785
9.23979
9.19064
9.13758
9.08346
9.03089
8.9732
8.90631
8.82573
8.73397
8.63535
8.53218
8.42622
8.31868
8.20054
8.07367
7.94135
7.78668
7.62453
7.45164
7.27306
7.08473
6.88484
6.68044
6.46075
6.23692
6.0082
5.77599
1
1
1
1
1
1
1
1
1
1
1
1
1
1
1
1
1
1
1
1
1
1
1
1
1
1
1
1
1
1
1
1
1
1
1
1
1
1
1
1
1
1
1
1
1
1
1
1
1
1
1
1
1
1
1
1
1
1
1
1
0.999999
1.09269
6.55525
9.21195
9.24412
9.27226
9.27173
9.24942
9.22054
9.18453
9.1402
9.08977
9.0338
8.97697
8.9165
8.84814
8.77082
8.68175
8.58452
8.47885
8.36907
8.25561
8.13803
8.0136
7.88511
7.73677
7.57804
7.40969
7.23766
7.05597
6.86744
6.66904
6.45546
6.24287
6.02633
5.80659
1
1
1
1
1
1
1
1
1
1
1
1
1
1
1
1
1
1
1
1
1
1
1
1
1
1
1
1
1
1
1
1
1
1
1
1
1
1
1
1
1
1
1
1
1
1
1
1
1
1
1
1
1
1
1
1
1
1
1
1
1
1.00055
3.81152
8.69443
9.20812
9.2403
9.23172
9.20412
9.17389
9.13832
9.09771
9.04812
8.9906
8.92911
8.86442
8.79366
8.71957
8.63551
8.54157
8.43585
8.32178
8.20318
8.08078
7.95708
7.83074
7.6898
7.53652
7.37324
7.20621
7.03145
6.85045
6.65702
6.45418
6.25241
6.04485
5.83029
1
1
1
1
1
1
1
1
1
1
1
1
1
1
1
1
1
1
1
1
1
1
1
1
1
1
1
1
1
1
1
1
1
1
1
1
1
1
1
1
1
1
1
1
1
1
1
1
1
1
1
1
1
1
1
1
1
1
1
1
1
0.999998
1.53029
7.72051
9.3604
9.23494
9.17418
9.14537
9.11785
9.08661
9.05011
9.00239
8.94509
8.88094
8.81313
8.74109
8.66913
8.59082
8.50034
8.39718
8.2816
8.15888
8.03179
7.90438
7.77827
7.64445
7.49806
7.34134
7.17885
7.00893
6.83159
6.64483
6.45298
6.25813
6.0566
5.84874
1
1
1
1
1
1
1
1
1
1
1
1
1
1
1
1
1
1
1
1
1
1
1
1
1
1
1
1
1
1
1
1
1
1
1
1
1
1
1
1
1
1
1
1
1
1
1
1
1
1
1
1
1
1
1
1
1
1
1
1
1
1
1.02336
5.59857
8.94018
9.07064
9.09713
9.09328
9.07497
9.04662
9.01131
8.96348
8.90492
8.8376
8.76586
8.69186
8.62
8.54474
8.45809
8.35945
8.24574
8.12155
7.99028
7.85783
7.72998
7.60021
7.46108
7.31219
7.15471
6.98805
6.81384
6.63445
6.45015
6.26125
6.06675
5.87006
1
1
1
1
1
1
1
1
1
1
1
1
1
1
1
1
1
1
1
1
1
1
1
1
1
1
1
1
1
1
1
1
1
1
1
1
1
1
1
1
1
1
1
1
1
1
1
1
1
1
1
1
1
1
1
1
1
1
1
1
1
1
0.999967
2.77975
8.39137
9.13737
9.08847
9.05178
9.027
8.99659
8.96451
8.92055
8.86373
8.79544
8.72086
8.64485
8.57114
8.49595
8.41233
8.31785
8.20908
8.08783
7.95634
7.82084
7.69041
7.56088
7.42614
7.28375
7.1315
6.96856
6.79935
6.62542
6.44541
6.26302
6.07783
5.89364
1
1
1
1
1
1
1
1
1
1
1
1
1
1
1
1
1
1
1
1
1
1
1
1
1
1
1
1
1
1
1
1
1
1
1
1
1
1
1
1
1
1
1
1
1
1
1
1
1
1
1
1
1
1
1
1
1
1
1
1
1
1
0.999988
1.21447
6.82278
9.10465
9.0336
9.00545
8.97338
8.93699
8.90131
8.85999
8.80996
8.74887
8.67787
8.60193
8.52532
8.44686
8.36345
8.27146
8.16811
8.05236
7.92506
7.79063
7.65882
7.52781
7.39403
7.25517
7.10728
6.94956
6.78642
6.61693
6.44243
6.26746
6.0912
5.91546
1
1
1
1
1
1
1
1
1
1
1
1
1
1
1
1
1
1
1
1
1
1
1
1
1
1
1
1
1
1
1
1
1
1
1
1
1
1
1
1
1
1
1
1
1
1
1
1
1
1
1
1
1
1
1
1
1
1
1
1
1
1
0.999998
1.00349
4.0512
8.54862
8.93559
8.95764
8.93942
8.89954
8.85747
8.81288
8.76343
8.70548
8.63798
8.56376
8.48557
8.40412
8.31858
8.22614
8.12582
8.01547
7.89488
7.76542
7.63456
7.50255
7.36765
7.22896
7.08327
6.93078
6.7733
6.6092
6.44195
6.27381
6.10328
5.93027
1
1
1
1
1
1
1
1
1
1
1
1
1
1
1
1
1
1
1
1
1
1
1
1
1
1
1
1
1
1
1
1
1
1
1
1
1
1
1
1
1
1
1
1
1
1
1
1
1
1
1
1
1
1
1
1
1
1
1
1
1
1
1
0.999995
1.55115
7.53248
9.09219
8.96426
8.90161
8.85484
8.80906
8.76082
8.71103
8.65569
8.59251
8.52162
8.444
8.36103
8.27376
8.18093
8.08215
7.9754
7.86033
7.73696
7.60978
7.47924
7.34431
7.20529
7.06113
6.91306
6.76121
6.60402
6.4436
6.28042
6.11365
5.94304
1
1
1
1
1
1
1
1
1
1
1
1
1
1
1
1
1
1
1
1
1
1
1
1
1
1
1
1
1
1
1
1
1
1
1
1
1
1
1
1
1
1
1
1
1
1
1
1
1
1
1
1
1
1
1
1
1
1
1
1
1
1
1
0.999999
1.02471
5.20361
8.64701
8.8052
8.8213
8.80694
8.7747
8.72765
8.67533
8.61846
8.55623
8.48635
8.40875
8.32487
8.23665
8.14343
8.04499
7.93969
7.82781
7.70967
7.5873
7.45969
7.32533
7.18569
7.04214
6.89673
6.74941
6.59841
6.44323
6.28393
6.12109
5.95545
1
1
1
1
1
1
1
1
1
1
1
1
1
1
1
1
1
1
1
1
1
1
1
1
1
1
1
1
1
1
1
1
1
1
1
1
1
1
1
1
1
1
1
1
1
1
1
1
1
1
1
1
1
1
1
1
1
1
1
1
1
1
1
1
1
2.21875
7.96584
8.95396
8.84098
8.77917
8.73718
8.68682
8.63312
8.57616
8.51463
8.44586
8.36968
8.28645
8.19841
8.10527
8.00727
7.90294
7.79312
7.67933
7.56224
7.43867
7.30608
7.1669
7.02485
6.88212
6.73856
6.59216
6.44093
6.28568
6.12821
5.96928
1
1
1
1
1
1
1
1
1
1
1
1
1
1
1
1
1
1
1
1
1
1
1
1
1
1
1
1
1
1
1
1
1
1
1
1
1
1
1
1
1
1
1
1
1
1
1
1
1
1
1
1
1
1
1
1
1
1
1
1
1
1
1
1
0.999997
1.10442
6.04626
8.71231
8.72938
8.72434
8.69197
8.64562
8.59226
8.53621
8.4759
8.40856
8.3338
8.25189
8.1646
8.07174
7.97389
7.87008
7.76167
7.65138
7.53931
7.42048
7.29105
7.15326
7.01245
6.87097
6.72897
6.58484
6.43641
6.28582
6.13577
5.98478
1
1
1
1
1
1
1
1
1
1
1
1
1
1
1
1
1
1
1
1
1
1
1
1
1
1
1
1
1
1
1
1
1
1
1
1
1
1
1
1
1
1
1
1
1
1
1
1
1
1
1
1
1
1
1
1
1
1
1
1
1
1
1
1
1
1.00074
2.94981
8.12378
8.73648
8.7115
8.66319
8.60921
8.55614
8.49917
8.43817
8.37101
8.29634
8.21527
8.12871
8.03646
7.93916
7.83694
7.73124
7.62424
7.51511
7.39961
7.27377
7.13923
7.00105
6.86154
6.72112
6.57855
6.43226
6.28592
6.14325
5.99995
1
1
1
1
1
1
1
1
1
1
1
1
1
1
1
1
1
1
1
1
1
1
1
1
1
1
1
1
1
1
1
1
1
1
1
1
1
1
1
1
1
1
1
1
1
1
1
1
1
1
1
1
1
1
1
1
1
1
1
1
1
1
1
1
1
1
1.23988
6.49336
8.74695
8.6764
8.62385
8.57148
8.51748
8.45942
8.39744
8.33036
8.25733
8.17887
8.09413
8.00334
7.90735
7.80775
7.70533
7.60019
7.49148
7.37722
7.25551
7.12695
6.99379
6.85695
6.71731
6.57547
6.43127
6.28904
6.15241
6.01508
1
1
1
1
1
1
1
1
1
1
1
1
1
1
1
1
1
1
1
1
1
1
1
1
1
1
1
1
1
1
1
1
1
1
1
1
1
1
1
1
1
1
1
1
1
1
1
1
1
1
1
1
1
1
1
1
1
1
1
1
1
1
1
1
1
1
1.00428
3.48979
8.10186
8.57986
8.57332
8.54686
8.50144
8.43995
8.36961
8.29645