/*--------------------------------*- C++ -*----------------------------------*\
  =========                 |
  \\      /  F ield         | OpenFOAM: The Open Source CFD Toolbox
   \\    /   O peration     | Website:  https://openfoam.org
    \\  /    A nd           | Version:  7
     \\/     M anipulation  |
\*---------------------------------------------------------------------------*/
FoamFile
{
    version     2.0;
    format      ascii;
    class       volScalarField;
    location    "1.3";
    object      rho;
}
// * * * * * * * * * * * * * * * * * * * * * * * * * * * * * * * * * * * * * //

dimensions      [1 -3 0 0 0 0 0];

internalField   nonuniform List<scalar> 
64512
(
1.40001
1.40001
1.40001
1.40001
1.40001
1.40001
1.40001
1.40001
1.40001
1.40001
1.40001
1.40001
1.40001
1.40001
1.40001
1.40001
1.40001
1.40001
1.40001
1.40001
1.40001
1.40001
1.40001
1.40001
1.40001
1.40001
1.40001
1.40001
1.40001
1.40001
1.40001
1.40001
1.40001
1.40001
1.40001
1.40001
1.40001
1.40001
1.40001
1.40001
1.40001
1.40001
1.40001
1.40001
1.40001
1.40001
1.40001
1.40001
1.40001
1.40001
1.40001
1.40001
3.22463
5.3875
5.48634
5.49389
5.50658
5.51766
5.5319
5.55135
5.57728
5.60489
5.63143
5.65898
5.68438
5.70414
5.71982
5.7324
5.73588
5.73343
5.73275
5.74229
5.76399
5.79069
5.81789
5.84039
5.85465
5.85898
5.85797
5.85952
5.86641
5.87552
5.88339
5.8885
5.89047
5.8894
5.88811
5.88786
5.88752
5.8849
5.8744
5.84592
5.79252
5.72707
5.67855
5.66626
1.40001
1.40001
1.40001
1.40001
1.40001
1.40001
1.40001
1.40001
1.40001
1.40001
1.40001
1.40001
1.40001
1.40001
1.40001
1.40001
1.40001
1.40001
1.40001
1.40001
1.40001
1.40001
1.40001
1.40001
1.40001
1.40001
1.40001
1.40001
1.40001
1.40001
1.40001
1.40001
1.40001
1.40001
1.40001
1.40001
1.40001
1.40001
1.40001
1.40001
1.40001
1.40001
1.40001
1.40001
1.40001
1.40001
1.40001
1.40001
1.40001
1.40001
1.40001
1.40001
3.20831
5.37827
5.48598
5.49305
5.50648
5.51769
5.53182
5.55133
5.57731
5.60494
5.63122
5.6586
5.68381
5.70355
5.71929
5.73154
5.73483
5.73235
5.7318
5.74173
5.76347
5.78992
5.81657
5.83889
5.85343
5.8584
5.85788
5.85947
5.86605
5.87473
5.88251
5.88785
5.89003
5.88912
5.88776
5.88723
5.88673
5.88408
5.87351
5.84498
5.79147
5.72565
5.67666
5.6638
1.40001
1.40001
1.40001
1.40001
1.40001
1.40001
1.40001
1.40001
1.40001
1.40001
1.40001
1.40001
1.40001
1.40001
1.40001
1.40001
1.40001
1.40001
1.40001
1.40001
1.40001
1.40001
1.40001
1.40001
1.40001
1.40001
1.40001
1.40001
1.40001
1.40001
1.40001
1.40001
1.40001
1.40001
1.40001
1.40001
1.40001
1.40001
1.40001
1.40001
1.40001
1.40001
1.40001
1.40001
1.40001
1.40001
1.40001
1.40001
1.40001
1.40001
1.40001
1.40001
3.17256
5.36736
5.48444
5.49147
5.50571
5.5169
5.53112
5.5508
5.57699
5.60471
5.63075
5.65807
5.68291
5.70222
5.71779
5.7294
5.73248
5.73042
5.73063
5.74127
5.76283
5.78842
5.81406
5.83632
5.85159
5.85752
5.85747
5.85877
5.86482
5.87329
5.88124
5.88675
5.88892
5.88816
5.88678
5.88609
5.88549
5.88255
5.87154
5.84262
5.78892
5.72288
5.67365
5.6603
1.40001
1.40001
1.40001
1.40001
1.40001
1.40001
1.40001
1.40001
1.40001
1.40001
1.40001
1.40001
1.40001
1.40001
1.40001
1.40001
1.40001
1.40001
1.40001
1.40001
1.40001
1.40001
1.40001
1.40001
1.40001
1.40001
1.40001
1.40001
1.40001
1.40001
1.40001
1.40001
1.40001
1.40001
1.40001
1.40001
1.40001
1.40001
1.40001
1.40001
1.40001
1.40001
1.40001
1.40001
1.40001
1.40001
1.40001
1.40001
1.40001
1.40001
1.40001
1.40001
3.11682
5.35309
5.48362
5.49057
5.50523
5.5162
5.53018
5.5499
5.57643
5.60444
5.6305
5.65793
5.68231
5.70071
5.71578
5.72613
5.72866
5.72723
5.72893
5.74097
5.76255
5.78683
5.8108
5.83265
5.84873
5.85595
5.85676
5.85785
5.86313
5.87127
5.87933
5.88505
5.88726
5.88657
5.88504
5.88418
5.88349
5.88026
5.86868
5.83895
5.78458
5.71825
5.66897
5.65517
1.40001
1.40001
1.40001
1.40001
1.40001
1.40001
1.40001
1.40001
1.40001
1.40001
1.40001
1.40001
1.40001
1.40001
1.40001
1.40001
1.40001
1.40001
1.40001
1.40001
1.40001
1.40001
1.40001
1.40001
1.40001
1.40001
1.40001
1.40001
1.40001
1.40001
1.40001
1.40001
1.40001
1.40001
1.40001
1.40001
1.40001
1.40001
1.40001
1.40001
1.40001
1.40001
1.40001
1.40001
1.40001
1.40001
1.40001
1.40001
1.40001
1.40001
1.40001
1.40001
3.04405
5.33156
5.48104
5.48804
5.50344
5.51465
5.52877
5.54874
5.57587
5.60409
5.63039
5.65805
5.68201
5.69912
5.71338
5.72179
5.72323
5.72254
5.72654
5.74083
5.76283
5.78571
5.80759
5.82844
5.84516
5.85373
5.85535
5.85625
5.86082
5.86858
5.87678
5.88281
5.8851
5.88429
5.8825
5.88149
5.88074
5.87726
5.86491
5.83405
5.77865
5.712
5.66306
5.64922
1.40001
1.40001
1.40001
1.40001
1.40001
1.40001
1.40001
1.40001
1.40001
1.40001
1.40001
1.40001
1.40001
1.40001
1.40001
1.40001
1.40001
1.40001
1.40001
1.40001
1.40001
1.40001
1.40001
1.40001
1.40001
1.40001
1.40001
1.40001
1.40001
1.40001
1.40001
1.40001
1.40001
1.40001
1.40001
1.40001
1.40001
1.40001
1.40001
1.40001
1.40001
1.40001
1.40001
1.40001
1.40001
1.40001
1.40001
1.40001
1.40001
1.40001
1.40001
1.40001
2.95555
5.3001
5.47726
5.48438
5.50093
5.51272
5.52739
5.54794
5.57569
5.60361
5.63017
5.65799
5.68161
5.69758
5.7108
5.7168
5.71673
5.71669
5.72326
5.74011
5.76302
5.78492
5.80497
5.82441
5.84113
5.85061
5.85296
5.85369
5.85766
5.86507
5.87347
5.87988
5.8823
5.8813
5.87918
5.87798
5.87724
5.87347
5.86013
5.82775
5.77121
5.70436
5.65622
5.64299
1.40001
1.40001
1.40001
1.40001
1.40001
1.40001
1.40001
1.40001
1.40001
1.40001
1.40001
1.40001
1.40001
1.40001
1.40001
1.40001
1.40001
1.40001
1.40001
1.40001
1.40001
1.40001
1.40001
1.40001
1.40001
1.40001
1.40001
1.40001
1.40001
1.40001
1.40001
1.40001
1.40001
1.40001
1.40001
1.40001
1.40001
1.40001
1.40001
1.40001
1.40001
1.40001
1.40001
1.40001
1.40001
1.40001
1.40001
1.40001
1.40001
1.40001
1.40001
1.40001
2.85114
5.26085
5.47312
5.47965
5.49751
5.51021
5.52585
5.54762
5.57619
5.60325
5.6298
5.65739
5.68041
5.69586
5.70786
5.7111
5.70961
5.7101
5.71895
5.73825
5.76245
5.78411
5.80304
5.82098
5.83692
5.84663
5.8494
5.85008
5.85356
5.86071
5.8693
5.87616
5.87875
5.87764
5.87529
5.87391
5.87301
5.86871
5.85418
5.82002
5.76237
5.69573
5.64886
5.63674
1.40001
1.40001
1.40001
1.40001
1.40001
1.40001
1.40001
1.40001
1.40001
1.40001
1.40001
1.40001
1.40001
1.40001
1.40001
1.40001
1.40001
1.40001
1.40001
1.40001
1.40001
1.40001
1.40001
1.40001
1.40001
1.40001
1.40001
1.40001
1.40001
1.40001
1.40001
1.40001
1.40001
1.40001
1.40001
1.40001
1.40001
1.40001
1.40001
1.40001
1.40001
1.40001
1.40001
1.40001
1.40001
1.40001
1.40001
1.40001
1.40001
1.40001
1.40001
1.40001
2.73185
5.21397
5.46957
5.47441
5.49329
5.5073
5.52448
5.54834
5.57759
5.60331
5.62933
5.65595
5.6775
5.69291
5.70353
5.70456
5.70217
5.70313
5.71373
5.73499
5.76059
5.78272
5.80132
5.81798
5.83257
5.8418
5.84453
5.84517
5.84841
5.85548
5.86422
5.87145
5.87429
5.87327
5.87097
5.86946
5.86815
5.86299
5.84704
5.81116
5.7525
5.68639
5.64108
5.63037
1.40001
1.40001
1.40001
1.40001
1.40001
1.40001
1.40001
1.40001
1.40001
1.40001
1.40001
1.40001
1.40001
1.40001
1.40001
1.40001
1.40001
1.40001
1.40001
1.40001
1.40001
1.40001
1.40001
1.40001
1.40001
1.40001
1.40001
1.40001
1.40001
1.40001
1.40001
1.40001
1.40001
1.40001
1.40001
1.40001
1.40001
1.40001
1.40001
1.40001
1.40001
1.40001
1.40001
1.40001
1.40001
1.40001
1.40001
1.40001
1.40001
1.40001
1.40001
1.40001
2.59933
5.15544
5.4662
5.46895
5.48901
5.50456
5.52368
5.55005
5.57919
5.60428
5.62921
5.65423
5.67293
5.68777
5.69695
5.69686
5.69425
5.69563
5.70769
5.73029
5.75711
5.78008
5.79907
5.81495
5.82809
5.83622
5.8384
5.83889
5.84208
5.84925
5.85811
5.86563
5.86886
5.86823
5.8663
5.86473
5.86284
5.85646
5.83893
5.80152
5.74207
5.67654
5.63278
5.62343
1.40001
1.40001
1.40001
1.40001
1.40001
1.40001
1.40001
1.40001
1.40001
1.40001
1.40001
1.40001
1.40001
1.40001
1.40001
1.40001
1.40001
1.40001
1.40001
1.40001
1.40001
1.40001
1.40001
1.40001
1.40001
1.40001
1.40001
1.40001
1.40001
1.40001
1.40001
1.40001
1.40001
1.40001
1.40001
1.40001
1.40001
1.40001
1.40001
1.40001
1.40001
1.40001
1.40001
1.40001
1.40001
1.40001
1.40001
1.40001
1.40001
1.40001
1.40001
1.40001
2.45614
5.08538
5.46337
5.46428
5.48588
5.50331
5.52463
5.55255
5.58099
5.6059
5.62973
5.65189
5.66756
5.68088
5.68828
5.68783
5.68548
5.68759
5.7009
5.72451
5.75224
5.77615
5.79587
5.81158
5.82347
5.83
5.8312
5.83135
5.8346
5.842
5.85097
5.85869
5.86242
5.86244
5.86105
5.8595
5.85694
5.8492
5.83013
5.79157
5.73161
5.66646
5.62374
5.61558
1.40001
1.40001
1.40001
1.40001
1.40001
1.40001
1.40001
1.40001
1.40001
1.40001
1.40001
1.40001
1.40001
1.40001
1.40001
1.40001
1.40001
1.40001
1.40001
1.40001
1.40001
1.40001
1.40001
1.40001
1.40001
1.40001
1.40001
1.40001
1.40001
1.40001
1.40001
1.40001
1.40001
1.40001
1.40001
1.40001
1.40001
1.40001
1.40001
1.40001
1.40001
1.40001
1.40001
1.40001
1.40001
1.40001
1.40001
1.40001
1.40001
1.40001
1.40001
1.40001
2.29095
5.00265
5.46103
5.463
5.48657
5.50498
5.52784
5.55421
5.58134
5.60664
5.62916
5.64795
5.66212
5.67324
5.67858
5.67775
5.67574
5.67921
5.69369
5.71792
5.74601
5.77085
5.79142
5.80744
5.81848
5.82312
5.82308
5.82267
5.82602
5.83367
5.84274
5.8506
5.85491
5.85565
5.85488
5.85352
5.85034
5.84138
5.82111
5.7819
5.72158
5.65627
5.61356
5.60593
1.40001
1.40001
1.40001
1.40001
1.40001
1.40001
1.40001
1.40001
1.40001
1.40001
1.40001
1.40001
1.40001
1.40001
1.40001
1.40001
1.40001
1.40001
1.40001
1.40001
1.40001
1.40001
1.40001
1.40001
1.40001
1.40001
1.40001
1.40001
1.40001
1.40001
1.40001
1.40001
1.40001
1.40001
1.40001
1.40001
1.40001
1.40001
1.40001
1.40001
1.40001
1.40001
1.40001
1.40001
1.40001
1.40001
1.40001
1.40001
1.40001
1.40001
1.40001
1.40001
2.11669
4.90622
5.45929
5.4649
5.49005
5.50933
5.53154
5.55319
5.5787
5.60367
5.62531
5.64241
5.65616
5.66537
5.66889
5.66741
5.66576
5.67077
5.68637
5.71089
5.73886
5.76449
5.78587
5.80244
5.81299
5.8158
5.81466
5.81346
5.81692
5.82457
5.8336
5.84146
5.84619
5.84761
5.84752
5.84645
5.84277
5.83299
5.81216
5.77282
5.71217
5.64598
5.60208
5.5939
1.40001
1.40001
1.40001
1.40001
1.40001
1.40001
1.40001
1.40001
1.40001
1.40001
1.40001
1.40001
1.40001
1.40001
1.40001
1.40001
1.40001
1.40001
1.40001
1.40001
1.40001
1.40001
1.40001
1.40001
1.40001
1.40001
1.40001
1.40001
1.40001
1.40001
1.40001
1.40001
1.40001
1.40001
1.40001
1.40001
1.40001
1.40001
1.40001
1.40001
1.40001
1.40001
1.40001
1.40001
1.40001
1.40001
1.40001
1.40001
1.40001
1.40001
1.40001
1.40001
1.9445
4.78282
5.45981
5.46937
5.49552
5.5146
5.53318
5.55054
5.57197
5.59574
5.61786
5.63525
5.64928
5.65732
5.65956
5.65762
5.65637
5.6627
5.67915
5.70365
5.73112
5.75719
5.77952
5.79685
5.80695
5.8082
5.80579
5.80356
5.80721
5.8147
5.82359
5.83131
5.83617
5.83817
5.83866
5.83785
5.83395
5.82404
5.80343
5.7644
5.70336
5.63557
5.58951
5.57997
1.40001
1.40001
1.40001
1.40001
1.40001
1.40001
1.40001
1.40001
1.40001
1.40001
1.40001
1.40001
1.40001
1.40001
1.40001
1.40001
1.40001
1.40001
1.40001
1.40001
1.40001
1.40001
1.40001
1.40001
1.40001
1.40001
1.40001
1.40001
1.40001
1.40001
1.40001
1.40001
1.40001
1.40001
1.40001
1.40001
1.40001
1.40001
1.40001
1.40001
1.40001
1.40001
1.40001
1.40001
1.40001
1.40001
1.40001
1.40001
1.40001
1.40001
1.40001
1.40001
1.77865
4.63312
5.46552
5.47323
5.49673
5.51466
5.52917
5.54325
5.56257
5.58539
5.60841
5.62682
5.641
5.64836
5.6501
5.64797
5.6473
5.6549
5.67226
5.69693
5.72376
5.74972
5.77247
5.79023
5.79984
5.79975
5.79588
5.79311
5.79695
5.80449
5.81318
5.82054
5.82512
5.82725
5.82795
5.82728
5.82347
5.81413
5.79449
5.75616
5.69465
5.62473
5.57583
5.5642
1.40001
1.40001
1.40001
1.40001
1.40001
1.40001
1.40001
1.40001
1.40001
1.40001
1.40001
1.40001
1.40001
1.40001
1.40001
1.40001
1.40001
1.40001
1.40001
1.40001
1.40001
1.40001
1.40001
1.40001
1.40001
1.40001
1.40001
1.40001
1.40001
1.40001
1.40001
1.40001
1.40001
1.40001
1.40001
1.40001
1.40001
1.40001
1.40001
1.40001
1.40001
1.40001
1.40001
1.40001
1.40001
1.40001
1.40001
1.40001
1.40001
1.40001
1.40001
1.40001
1.62935
4.46045
5.47148
5.47097
5.49182
5.50744
5.51994
5.53428
5.55293
5.57499
5.59837
5.61729
5.63133
5.63847
5.64088
5.63932
5.6396
5.64796
5.66561
5.69008
5.71604
5.74151
5.76433
5.7824
5.79156
5.79034
5.7852
5.78219
5.78601
5.79374
5.80225
5.80908
5.81304
5.81476
5.8152
5.81451
5.8111
5.80294
5.78491
5.74768
5.68579
5.61348
5.56142
5.54722
1.40001
1.40001
1.40001
1.40001
1.40001
1.40001
1.40001
1.40001
1.40001
1.40001
1.40001
1.40001
1.40001
1.40001
1.40001
1.40001
1.40001
1.40001
1.40001
1.40001
1.40001
1.40001
1.40001
1.40001
1.40001
1.40001
1.40001
1.40001
1.40001
1.40001
1.40001
1.40001
1.40001
1.40001
1.40001
1.40001
1.40001
1.40001
1.40001
1.40001
1.40001
1.40001
1.40001
1.40001
1.40001
1.40001
1.40001
1.40001
1.40001
1.40001
1.40001
1.40001
1.48097
4.22806
5.46575
5.46745
5.48673
5.49917
5.50825
5.52039
5.53855
5.56127
5.58594
5.6067
5.6221
5.63014
5.63337
5.63208
5.63286
5.64141
5.65906
5.68359
5.70898
5.73386
5.756
5.77378
5.78205
5.77949
5.77321
5.77003
5.77394
5.78208
5.7907
5.79716
5.8003
5.80113
5.80083
5.79975
5.79679
5.79009
5.77399
5.73822
5.67613
5.60144
5.5461
5.52907
1.40001
1.40001
1.40001
1.40001
1.40001
1.40001
1.40001
1.40001
1.40001
1.40001
1.40001
1.40001
1.40001
1.40001
1.40001
1.40001
1.40001
1.40001
1.40001
1.40001
1.40001
1.40001
1.40001
1.40001
1.40001
1.40001
1.40001
1.40001
1.40001
1.40001
1.40001
1.40001
1.40001
1.40001
1.40001
1.40001
1.40001
1.40001
1.40001
1.40001
1.40001
1.40001
1.40001
1.40001
1.40001
1.40001
1.40001
1.40001
1.40001
1.40001
1.40001
1.40001
1.40388
3.94048
5.43556
5.44509
5.46418
5.47848
5.49066
5.50618
5.52618
5.55055
5.57657
5.59856
5.61412
5.62248
5.6263
5.62597
5.62767
5.63624
5.65336
5.6777
5.70268
5.72671
5.74742
5.76411
5.77109
5.76704
5.75979
5.75648
5.76069
5.76934
5.77819
5.78438
5.78662
5.78615
5.78471
5.78298
5.78036
5.77509
5.76104
5.72706
5.66517
5.58845
5.53007
5.51028
1.40001
1.40001
1.40001
1.40001
1.40001
1.40001
1.40001
1.40001
1.40001
1.40001
1.40001
1.40001
1.40001
1.40001
1.40001
1.40001
1.40001
1.40001
1.40001
1.40001
1.40001
1.40001
1.40001
1.40001
1.40001
1.40001
1.40001
1.40001
1.40001
1.40001
1.40001
1.40001
1.40001
1.40001
1.40001
1.40001
1.40001
1.40001
1.40001
1.40001
1.40001
1.40001
1.40001
1.40001
1.40001
1.40001
1.40001
1.40001
1.40001
1.40001
1.40001
1.40001
1.40003
3.58803
5.38491
5.42706
5.44521
5.46047
5.47627
5.49435
5.51521
5.5399
5.56534
5.588
5.60451
5.61494
5.62012
5.62192
5.62476
5.63242
5.6479
5.67134
5.69625
5.71933
5.73859
5.75371
5.759
5.75323
5.74491
5.74134
5.74581
5.75487
5.76407
5.77022
5.7719
5.7702
5.76746
5.76488
5.76226
5.75807
5.7458
5.71365
5.65227
5.57398
5.51298
5.49075
1.40001
1.40001
1.40001
1.40001
1.40001
1.40001
1.40001
1.40001
1.40001
1.40001
1.40001
1.40001
1.40001
1.40001
1.40001
1.40001
1.40001
1.40001
1.40001
1.40001
1.40001
1.40001
1.40001
1.40001
1.40001
1.40001
1.40001
1.40001
1.40001
1.40001
1.40001
1.40001
1.40001
1.40001
1.40001
1.40001
1.40001
1.40001
1.40001
1.40001
1.40001
1.40001
1.40001
1.40001
1.40001
1.40001
1.40001
1.40001
1.40001
1.40001
1.40001
1.40001
1.40001
3.21303
5.31857
5.4163
5.4342
5.45066
5.46776
5.48651
5.50824
5.53258
5.55656
5.57899
5.59569
5.60796
5.61492
5.6191
5.62285
5.62883
5.64175
5.66362
5.68875
5.71099
5.72932
5.74261
5.74582
5.73814
5.72883
5.72509
5.72983
5.73908
5.74854
5.75477
5.75605
5.75312
5.74888
5.7451
5.74216
5.73875
5.728
5.69765
5.63708
5.55783
5.49486
5.47082
1.40001
1.40001
1.40001
1.40001
1.40001
1.40001
1.40001
1.40001
1.40001
1.40001
1.40001
1.40001
1.40001
1.40001
1.40001
1.40001
1.40001
1.40001
1.40001
1.40001
1.40001
1.40001
1.40001
1.40001
1.40001
1.40001
1.40001
1.40001
1.40001
1.40001
1.40001
1.40001
1.40001
1.40001
1.40001
1.40001
1.40001
1.40001
1.40001
1.40001
1.40001
1.40001
1.40001
1.40001
1.40001
1.40001
1.40001
1.40001
1.40001
1.40001
1.40001
1.40001
1.40001
2.82975
5.21338
5.4162
5.42973
5.44933
5.4681
5.48748
5.50795
5.52919
5.55013
5.5711
5.58808
5.60121
5.60953
5.6159
5.62063
5.6251
5.63538
5.65457
5.67862
5.70074
5.71873
5.72966
5.73066
5.72175
5.71173
5.70807
5.71308
5.72217
5.73154
5.73782
5.73872
5.73461
5.72887
5.72377
5.72048
5.71783
5.70829
5.67926
5.61923
5.53915
5.47467
5.44941
1.40001
1.40001
1.40001
1.40001
1.40001
1.40001
1.40001
1.40001
1.40001
1.40001
1.40001
1.40001
1.40001
1.40001
1.40001
1.40001
1.40001
1.40001
1.40001
1.40001
1.40001
1.40001
1.40001
1.40001
1.40001
1.40001
1.40001
1.40001
1.40001
1.40001
1.40001
1.40001
1.40001
1.40001
1.40001
1.40001
1.40001
1.40001
1.40001
1.40001
1.40001
1.40001
1.40001
1.40001
1.40001
1.40001
1.40001
1.40001
1.40001
1.40001
1.40001
1.40001
1.40001
2.45174
5.06818
5.41827
5.44411
5.46677
5.4836
5.50032
5.51673
5.53292
5.54876
5.56518
5.58045
5.59318
5.60234
5.61004
5.61551
5.61929
5.62776
5.64424
5.66631
5.68784
5.70526
5.71428
5.713
5.70359
5.69349
5.69035
5.69535
5.70381
5.71267
5.71907
5.71962
5.71439
5.70727
5.70086
5.69719
5.69498
5.68625
5.65818
5.59851
5.51774
5.45211
5.42628
1.40001
1.40001
1.40001
1.40001
1.40001
1.40001
1.40001
1.40001
1.40001
1.40001
1.40001
1.40001
1.40001
1.40001
1.40001
1.40001
1.40001
1.40001
1.40001
1.40001
1.40001
1.40001
1.40001
1.40001
1.40001
1.40001
1.40001
1.40001
1.40001
1.40001
1.40001
1.40001
1.40001
1.40001
1.40001
1.40001
1.40001
1.40001
1.40001
1.40001
1.40001
1.40001
1.40001
1.40001
1.40001
1.40001
1.40001
1.40001
1.40001
1.40001
1.40001
1.40001
1.40001
2.08433
4.89671
5.45023
5.45849
5.47653
5.49194
5.50749
5.52119
5.53378
5.54613
5.55932
5.57321
5.58453
5.59335
5.60075
5.60589
5.6093
5.617
5.63189
5.6521
5.67264
5.68906
5.69647
5.69322
5.68343
5.67351
5.67088
5.67568
5.68389
5.69263
5.69881
5.69878
5.69269
5.68409
5.67651
5.67276
5.67071
5.66229
5.63466
5.57478
5.49289
5.42598
5.39974
1.40001
1.40001
1.40001
1.40001
1.40001
1.40001
1.40001
1.40001
1.40001
1.40001
1.40001
1.40001
1.40001
1.40001
1.40001
1.40001
1.40001
1.40001
1.40001
1.40001
1.40001
1.40001
1.40001
1.40001
1.40001
1.40001
1.40001
1.40001
1.40001
1.40001
1.40001
1.40001
1.40001
1.40001
1.40001
1.40001
1.40001
1.40001
1.40001
1.40001
1.40001
1.40001
1.40001
1.40001
1.40001
1.40001
1.40001
1.40001
1.40001
1.40001
1.40001
1.40001
1.40001
1.74563
4.67978
5.49253
5.47514
5.48714
5.49943
5.5127
5.52404
5.53411
5.54427
5.55625
5.56867
5.57767
5.58399
5.58764
5.59024
5.59342
5.60227
5.61777
5.63758
5.65716
5.67179
5.67688
5.67139
5.66091
5.65148
5.64974
5.6546
5.66277
5.67145
5.67696
5.67579
5.66891
5.65897
5.65048
5.64664
5.64413
5.63551
5.60788
5.54761
5.46453
5.39623
5.36972
1.40001
1.40001
1.40001
1.40001
1.40001
1.40001
1.40001
1.40001
1.40001
1.40001
1.40001
1.40001
1.40001
1.40001
1.40001
1.40001
1.40001
1.40001
1.40001
1.40001
1.40001
1.40001
1.40001
1.40001
1.40001
1.40001
1.40001
1.40001
1.40001
1.40001
1.40001
1.40001
1.40001
1.40001
1.40001
1.40001
1.40001
1.40001
1.40001
1.40001
1.40001
1.40001
1.40001
1.40001
1.40001
1.40001
1.40001
1.40001
1.40001
1.40001
1.40001
1.40001
1.40001
1.48748
4.34275
5.46078
5.44344
5.46194
5.47924
5.49588
5.50916
5.52163
5.53426
5.54777
5.56084
5.56954
5.57352
5.57322
5.57354
5.57653
5.58625
5.60123
5.61992
5.63825
5.65162
5.65535
5.64865
5.63741
5.62824
5.62742
5.63263
5.64064
5.64875
5.65302
5.65032
5.64264
5.63181
5.62299
5.61899
5.61563
5.60632
5.57809
5.51684
5.43182
5.36137
5.33391
1.40001
1.40001
1.40001
1.40001
1.40001
1.40001
1.40001
1.40001
1.40001
1.40001
1.40001
1.40001
1.40001
1.40001
1.40001
1.40001
1.40001
1.40001
1.40001
1.40001
1.40001
1.40001
1.40001
1.40001
1.40001
1.40001
1.40001
1.40001
1.40001
1.40001
1.40001
1.40001
1.40001
1.40001
1.40001
1.40001
1.40001
1.40001
1.40001
1.40001
1.40001
1.40001
1.40001
1.40001
1.40001
1.40001
1.40001
1.40001
1.40001
1.40001
1.40001
1.40001
1.40001
1.40283
3.87837
5.37266
5.4026
5.43241
5.45262
5.47115
5.48739
5.50387
5.51961
5.53445
5.54712
5.55504
5.55765
5.5558
5.55532
5.55816
5.56826
5.58271
5.60075
5.61824
5.63076
5.63374
5.6262
5.61382
5.60431
5.60428
5.61014
5.61781
5.62443
5.62666
5.62198
5.61325
5.60218
5.59354
5.5886
5.58338
5.5725
5.54325
5.48113
5.39436
5.32162
5.29306
1.40001
1.40001
1.40001
1.40001
1.40001
1.40001
1.40001
1.40001
1.40001
1.40001
1.40001
1.40001
1.40001
1.40001
1.40001
1.40001
1.40001
1.40001
1.40001
1.40001
1.40001
1.40001
1.40001
1.40001
1.40001
1.40001
1.40001
1.40001
1.40001
1.40001
1.40001
1.40001
1.40001
1.40001
1.40001
1.40001
1.40001
1.40001
1.40001
1.40001
1.40001
1.40001
1.40001
1.40001
1.40001
1.40001
1.40001
1.40001
1.40001
1.40001
1.40001
1.40001
1.40001
1.40002
3.40067
5.26182
5.36774
5.40762
5.43109
5.45051
5.46872
5.48738
5.50471
5.52072
5.53321
5.54081
5.54267
5.54027
5.53906
5.54101
5.55034
5.56365
5.58067
5.59735
5.60929
5.61211
5.60431
5.59083
5.58077
5.58092
5.58685
5.59399
5.59864
5.59788
5.59087
5.58068
5.56966
5.56129
5.55506
5.54767
5.53469
5.50413
5.44052
5.35081
5.27443
5.2432
1.40001
1.40001
1.40001
1.40001
1.40001
1.40001
1.40001
1.40001
1.40001
1.40001
1.40001
1.40001
1.40001
1.40001
1.40001
1.40001
1.40001
1.40001
1.40001
1.40001
1.40001
1.40001
1.40001
1.40001
1.40001
1.40001
1.40001
1.40001
1.40001
1.40001
1.40001
1.40001
1.40001
1.40001
1.40001
1.40001
1.40001
1.40001
1.40001
1.40001
1.40001
1.40001
1.40001
1.40001
1.40001
1.40001
1.40001
1.40001
1.40001
1.40001
1.40001
1.40001
1.40001
1.40001
2.90888
5.1205
5.35744
5.3912
5.41866
5.43784
5.45497
5.47325
5.49156
5.50827
5.52058
5.52828
5.52965
5.52607
5.52348
5.52463
5.53233
5.54446
5.56026
5.57616
5.58767
5.59058
5.58298
5.56879
5.5582
5.55768
5.56269
5.56855
5.57105
5.56703
5.55729
5.54544
5.53422
5.52534
5.51686
5.50592
5.48929
5.45637
5.39117
5.29908
5.21941
5.18615
1.40001
1.40001
1.40001
1.40001
1.40001
1.40001
1.40001
1.40001
1.40001
1.40001
1.40001
1.40001
1.40001
1.40001
1.40001
1.40001
1.40001
1.40001
1.40001
1.40001
1.40001
1.40001
1.40001
1.40001
1.40001
1.40001
1.40001
1.40001
1.40001
1.40001
1.40001
1.40001
1.40001
1.40001
1.40001
1.40001
1.40001
1.40001
1.40001
1.40001
1.40001
1.40001
1.40001
1.40001
1.40001
1.40001
1.40001
1.40001
1.40001
1.40001
1.40001
1.40001
1.40001
1.40001
2.38735
4.9532
5.41329
5.41368
5.43024
5.44024
5.45019
5.4644
5.48148
5.49777
5.50959
5.51695
5.51787
5.51281
5.50843
5.50835
5.51427
5.52516
5.53964
5.5548
5.566
5.56911
5.56198
5.54797
5.53662
5.53456
5.53772
5.54121
5.54102
5.53383
5.52164
5.50796
5.49567
5.48486
5.47281
5.4574
5.43703
5.40216
5.33497
5.23806
5.15161
5.1121
1.40001
1.40001
1.40001
1.40001
1.40001
1.40001
1.40001
1.40001
1.40001
1.40001
1.40001
1.40001
1.40001
1.40001
1.40001
1.40001
1.40001
1.40001
1.40001
1.40001
1.40001
1.40001
1.40001
1.40001
1.40001
1.40001
1.40001
1.40001
1.40001
1.40001
1.40001
1.40001
1.40001
1.40001
1.40001
1.40001
1.40001
1.40001
1.40001
1.40001
1.40001
1.40001
1.40001
1.40001
1.40001
1.40001
1.40001
1.40001
1.40001
1.40001
1.40001
1.40001
1.40001
1.40001
1.86842
4.79135
5.48779
5.43178
5.44019
5.44477
5.45062
5.46163
5.47568
5.49014
5.50148
5.5084
5.50877
5.5019
5.49477
5.49201
5.49616
5.50587
5.51914
5.53334
5.54409
5.54753
5.54119
5.52791
5.51575
5.51137
5.51131
5.51172
5.50807
5.498
5.48376
5.46826
5.45379
5.43967
5.42261
5.40076
5.37418
5.334
5.26168
5.15901
5.06586
5.02459
1.40001
1.40001
1.40001
1.40001
1.40001
1.40001
1.40001
1.40001
1.40001
1.40001
1.40001
1.40001
1.40001
1.40001
1.40001
1.40001
1.40001
1.40001
1.40001
1.40001
1.40001
1.40001
1.40001
1.40001
1.40001
1.40001
1.40001
1.40001
1.40001
1.40001
1.40001
1.40001
1.40001
1.40001
1.40001
1.40001
1.40001
1.40001
1.40001
1.40001
1.40001
1.40001
1.40001
1.40001
1.40001
1.40001
1.40001
1.40001
1.40001
1.40001
1.40001
1.40001
1.40001
1.40001
1.46368
4.36881
5.47752
5.43637
5.45002
5.45478
5.45884
5.46409
5.47168
5.4824
5.49278
5.49973
5.50041
5.49315
5.48422
5.47863
5.47973
5.48778
5.49947
5.5123
5.52229
5.52599
5.52072
5.50866
5.49588
5.48799
5.48363
5.47944
5.47203
5.45966
5.44369
5.42591
5.40836
5.38941
5.36523
5.33529
5.30067
5.25463
5.17786
5.06692
4.95784
4.89534
1.40001
1.40001
1.40001
1.40001
1.40001
1.40001
1.40001
1.40001
1.40001
1.40001
1.40001
1.40001
1.40001
1.40001
1.40001
1.40001
1.40001
1.40001
1.40001
1.40001
1.40001
1.40001
1.40001
1.40001
1.40001
1.40001
1.40001
1.40001
1.40001
1.40001
1.40001
1.40001
1.40001
1.40001
1.40001
1.40001
1.40001
1.40001
1.40001
1.40001
1.40001
1.40001
1.40001
1.40001
1.40001
1.40001
1.40001
1.40001
1.40001
1.40001
1.40001
1.40001
1.40001
1.40001
1.40072
3.74914
5.30953
5.38672
5.42284
5.43626
5.44365
5.45139
5.46015
5.47254
5.48401
5.492
5.49276
5.48534
5.47509
5.46682
5.4641
5.46942
5.4788
5.48966
5.49866
5.50257
5.4987
5.4882
5.47488
5.46316
5.45381
5.44465
5.43357
5.41897
5.40095
5.38031
5.35882
5.33334
5.30087
5.26283
5.21797
5.15888
5.0662
4.92884
4.79252
4.71354
1.40001
1.40001
1.40001
1.40001
1.40001
1.40001
1.40001
1.40001
1.40001
1.40001
1.40001
1.40001
1.40001
1.40001
1.40001
1.40001
1.40001
1.40001
1.40001
1.40001
1.40001
1.40001
1.40001
1.40001
1.40001
1.40001
1.40001
1.40001
1.40001
1.40001
1.40001
1.40001
1.40001
1.40001
1.40001
1.40001
1.40001
1.40001
1.40001
1.40001
1.40001
1.40001
1.40001
1.40001
1.40001
1.40001
1.40001
1.40001
1.40001
1.40001
1.40001
1.40001
1.40001
1.40001
1.4
3.15103
5.18007
5.36008
5.39819
5.41926
5.42814
5.43316
5.44283
5.45612
5.46854
5.4775
5.47987
5.47506
5.4659
5.45708
5.45161
5.45295
5.45884
5.46704
5.47437
5.47774
5.47435
5.46462
5.45089
5.43606
5.42228
5.40889
5.39438
5.37699
5.35569
5.33135
5.30436
5.27096
5.23027
5.1827
5.12419
5.04658
4.93502
4.77476
4.59333
4.48174
1.40001
1.40001
1.40001
1.40001
1.40001
1.40001
1.40001
1.40001
1.40001
1.40001
1.40001
1.40001
1.40001
1.40001
1.40001
1.40001
1.40001
1.40001
1.40001
1.40001
1.40001
1.40001
1.40001
1.40001
1.40001
1.40001
1.40001
1.40001
1.40001
1.40001
1.40001
1.40001
1.40001
1.40001
1.40001
1.40001
1.40001
1.40001
1.40001
1.40001
1.40001
1.40001
1.40001
1.40001
1.40001
1.40001
1.40001
1.40001
1.40001
1.40001
1.40001
1.40001
1.40001
1.40001
1.4
2.54651
4.97822
5.36871
5.39061
5.40167
5.40746
5.41503
5.42563
5.43825
5.45083
5.46019
5.46386
5.4609
5.45251
5.44418
5.43758
5.43558
5.43861
5.44474
5.45023
5.45246
5.4484
5.43836
5.42405
5.40678
5.38948
5.37301
5.35536
5.33451
5.30889
5.27915
5.2446
5.20341
5.15409
5.09594
5.02343
4.92651
4.78441
4.56047
4.15468
3.24183
1.40001
1.40001
1.40001
1.40001
1.40001
1.40001
1.40001
1.40001
1.40001
1.40001
1.40001
1.40001
1.40001
1.40001
1.40001
1.40001
1.40001
1.40001
1.40001
1.40001
1.40001
1.40001
1.40001
1.40001
1.40001
1.40001
1.40001
1.40001
1.40001
1.40001
1.40001
1.40001
1.40001
1.40001
1.40001
1.40001
1.40001
1.40001
1.40001
1.40001
1.40001
1.40001
1.40001
1.40001
1.40001
1.40001
1.40001
1.40001
1.40001
1.40001
1.40001
1.40001
1.40001
1.40001
1.40001
1.95806
4.81703
5.42251
5.38618
5.38932
5.39694
5.40434
5.41198
5.42154
5.43238
5.44091
5.44494
5.44355
5.43631
5.42797
5.42073
5.41655
5.41719
5.42101
5.42482
5.4257
5.42058
5.40959
5.39427
5.37525
5.35594
5.33755
5.31696
5.2921
5.26116
5.22423
5.18128
5.13185
5.07369
5.00429
4.91625
4.79436
4.6131
4.32815
3.83893
2.83934
1.40001
1.40001
1.40001
1.40001
1.40001
1.40001
1.40001
1.40001
1.40001
1.40001
1.40001
1.40001
1.40001
1.40001
1.40001
1.40001
1.40001
1.40001
1.40001
1.40001
1.40001
1.40001
1.40001
1.40001
1.40001
1.40001
1.40001
1.40001
1.40001
1.40001
1.40001
1.40001
1.40001
1.40001
1.40001
1.40001
1.40001
1.40001
1.40001
1.40001
1.40001
1.40001
1.40001
1.40001
1.40001
1.40001
1.40001
1.40001
1.40001
1.40001
1.40001
1.40001
1.40001
1.40001
1.40001
1.47666
4.36683
5.44198
5.39699
5.39141
5.39502
5.39997
5.40414
5.40977
5.41732
5.42384
5.42687
5.42577
5.41827
5.4083
5.39991
5.39405
5.39268
5.39477
5.39736
5.39701
5.39081
5.37873
5.36247
5.34191
5.3214
5.30166
5.27838
5.24934
5.21267
5.16799
5.11631
5.05814
4.9908
4.91023
4.80623
4.66446
4.45082
4.1543
3.57582
2.72965
1.40001
1.40001
1.40001
1.40001
1.40001
1.40001
1.40001
1.40001
1.40001
1.40001
1.40001
1.40001
1.40001
1.40001
1.40001
1.40001
1.40001
1.40001
1.40001
1.40001
1.40001
1.40001
1.40001
1.40001
1.40001
1.40001
1.40001
1.40001
1.40001
1.40001
1.40001
1.40001
1.40001
1.40001
1.40001
1.40001
1.40001
1.40001
1.40001
1.40001
1.40001
1.40001
1.40001
1.40001
1.40001
1.40001
1.40001
1.40001
1.40001
1.40001
1.40001
1.40001
1.40001
1.40001
1.40001
1.40087
3.67413
5.2501
5.3371
5.37325
5.38564
5.39089
5.3941
5.39818
5.40343
5.40799
5.40964
5.40761
5.39906
5.38728
5.37722
5.36991
5.36666
5.36708
5.36855
5.36711
5.3598
5.34655
5.3289
5.30694
5.28495
5.26364
5.23821
5.20559
5.1637
5.11194
5.05183
4.98507
4.90839
4.81758
4.69982
4.54279
4.31466
3.98352
3.43724
2.75967
1.40001
1.40001
1.40001
1.40001
1.40001
1.40001
1.40001
1.40001
1.40001
1.40001
1.40001
1.40001
1.40001
1.40001
1.40001
1.40001
1.40001
1.40001
1.40001
1.40001
1.40001
1.40001
1.40001
1.40001
1.40001
1.40001
1.40001
1.40001
1.40001
1.40001
1.40001
1.40001
1.40001
1.40001
1.40001
1.40001
1.40001
1.40001
1.40001
1.40001
1.40001
1.40001
1.40001
1.40001
1.40001
1.40001
1.40001
1.40001
1.40001
1.40001
1.40001
1.40001
1.40001
1.40001
1.40001
1.4
2.97858
5.10357
5.32926
5.35751
5.3779
5.38357
5.38481
5.38655
5.3896
5.39292
5.39402
5.39134
5.38204
5.36834
5.35588
5.34619
5.34035
5.33849
5.33833
5.33601
5.32819
5.31409
5.29494
5.27153
5.24755
5.22391
5.19621
5.16043
5.11401
5.0566
4.98958
4.91515
4.82978
4.72905
4.60068
4.42997
4.19796
3.85931
3.38408
2.8246
1.40001
1.40001
1.40001
1.40001
1.40001
1.40001
1.40001
1.40001
1.40001
1.40001
1.40001
1.40001
1.40001
1.40001
1.40001
1.40001
1.40001
1.40001
1.40001
1.40001
1.40001
1.40001
1.40001
1.40001
1.40001
1.40001
1.40001
1.40001
1.40001
1.40001
1.40001
1.40001
1.40001
1.40001
1.40001
1.40001
1.40001
1.40001
1.40001
1.40001
1.40001
1.40001
1.40001
1.40001
1.40001
1.40001
1.40001
1.40001
1.40001
1.40001
1.40001
1.40001
1.40001
1.40001
1.40001
1.4
2.26347
4.8869
5.36824
5.36067
5.36889
5.3707
5.37194
5.37277
5.37456
5.37737
5.37856
5.3754
5.36615
5.35148
5.33722
5.32501
5.31674
5.31194
5.30935
5.30587
5.29763
5.28261
5.26167
5.23632
5.20954
5.18259
5.15211
5.11339
5.06331
5.00199
4.93033
4.84982
4.75725
4.64763
4.51125
4.33373
4.10149
3.77996
3.38149
2.91133
1.40001
1.40001
1.40001
1.40001
1.40001
1.40001
1.40001
1.40001
1.40001
1.40001
1.40001
1.40001
1.40001
1.40001
1.40001
1.40001
1.40001
1.40001
1.40001
1.40001
1.40001
1.40001
1.40001
1.40001
1.40001
1.40001
1.40001
1.40001
1.40001
1.40001
1.40001
1.40001
1.40001
1.40001
1.40001
1.40001
1.40001
1.40001
1.40001