/*--------------------------------*- C++ -*----------------------------------*\
  =========                 |
  \\      /  F ield         | OpenFOAM: The Open Source CFD Toolbox
   \\    /   O peration     | Website:  https://openfoam.org
    \\  /    A nd           | Version:  7
     \\/     M anipulation  |
\*---------------------------------------------------------------------------*/
FoamFile
{
    version     2.0;
    format      ascii;
    class       volScalarField;
    location    "1.3";
    object      T;
}
// * * * * * * * * * * * * * * * * * * * * * * * * * * * * * * * * * * * * * //

dimensions      [0 0 0 1 0 0 0];

internalField   nonuniform List<scalar> 
64512
(
1
1
1
1
1
1
1
1
1
1
1
1
1
1
1
1
1
1
1
1
1
1
1
1
1
1
1
1
1
1
1
1
1
1
1
1
1
1
1
1
1
1
1
1
1
1
1
1
1
1
1
1
2.03585
2.69684
2.72224
2.73424
2.74679
2.75813
2.76781
2.77432
2.77693
2.77617
2.77316
2.76804
2.76258
2.75981
2.7612
2.76763
2.77979
2.79459
2.80765
2.81531
2.81748
2.81729
2.81651
2.81583
2.81679
2.8206
2.82648
2.83299
2.83819
2.84062
2.84172
2.84332
2.84614
2.8499
2.85441
2.85908
2.8636
2.86917
2.87897
2.89831
2.9311
2.97149
3.00267
3.0153
1
1
1
1
1
1
1
1
1
1
1
1
1
1
1
1
1
1
1
1
1
1
1
1
1
1
1
1
1
1
1
1
1
1
1
1
1
1
1
1
1
1
1
1
1
1
1
1
1
1
1
1
2.03151
2.69584
2.72186
2.73387
2.74669
2.75813
2.76777
2.77424
2.7768
2.77603
2.77293
2.76775
2.76228
2.75958
2.76103
2.76752
2.77974
2.79454
2.80758
2.81523
2.81732
2.81704
2.81616
2.81551
2.81652
2.82046
2.82653
2.83305
2.83812
2.84047
2.84157
2.8432
2.84607
2.8499
2.8544
2.85899
2.86349
2.86908
2.87891
2.89831
2.93114
2.97145
3.00249
3.01494
1
1
1
1
1
1
1
1
1
1
1
1
1
1
1
1
1
1
1
1
1
1
1
1
1
1
1
1
1
1
1
1
1
1
1
1
1
1
1
1
1
1
1
1
1
1
1
1
1
1
1
1
2.01954
2.69456
2.72081
2.73291
2.74609
2.75768
2.76739
2.77383
2.77631
2.7755
2.77226
2.76697
2.76152
2.75896
2.76054
2.76726
2.7797
2.79461
2.80766
2.81517
2.81701
2.81651
2.81544
2.81491
2.81605
2.82021
2.82653
2.833
2.83788
2.84016
2.84135
2.84303
2.84592
2.84985
2.85435
2.85888
2.86338
2.86897
2.87884
2.89838
2.93137
2.97164
3.00252
3.01478
1
1
1
1
1
1
1
1
1
1
1
1
1
1
1
1
1
1
1
1
1
1
1
1
1
1
1
1
1
1
1
1
1
1
1
1
1
1
1
1
1
1
1
1
1
1
1
1
1
1
1
1
1.99951
2.69243
2.71988
2.73196
2.74522
2.75681
2.76652
2.77293
2.77537
2.77451
2.77112
2.76572
2.76038
2.75804
2.75984
2.76695
2.77972
2.79481
2.80789
2.81513
2.81662
2.81581
2.81446
2.814
2.8153
2.81977
2.82645
2.8329
2.83748
2.83971
2.84099
2.84275
2.84571
2.84973
2.85421
2.85867
2.86317
2.8688
2.87876
2.8985
2.93169
2.97195
3.00265
3.01474
1
1
1
1
1
1
1
1
1
1
1
1
1
1
1
1
1
1
1
1
1
1
1
1
1
1
1
1
1
1
1
1
1
1
1
1
1
1
1
1
1
1
1
1
1
1
1
1
1
1
1
1
1.97374
2.68981
2.71917
2.73103
2.74412
2.75553
2.76517
2.77154
2.77392
2.77297
2.76942
2.76396
2.75888
2.75689
2.75904
2.76673
2.7799
2.79516
2.80825
2.8151
2.81617
2.81504
2.81332
2.81285
2.81434
2.81913
2.82613
2.83258
2.8369
2.83908
2.84047
2.84235
2.84542
2.84948
2.85389
2.85831
2.86282
2.86852
2.87861
2.89854
2.93194
2.97228
3.00293
3.01494
1
1
1
1
1
1
1
1
1
1
1
1
1
1
1
1
1
1
1
1
1
1
1
1
1
1
1
1
1
1
1
1
1
1
1
1
1
1
1
1
1
1
1
1
1
1
1
1
1
1
1
1
1.94206
2.6859
2.71877
2.73031
2.7431
2.75415
2.76359
2.76976
2.77196
2.77081
2.76706
2.76166
2.75709
2.7557
2.75838
2.76687
2.78041
2.79565
2.80856
2.81492
2.81559
2.8142
2.81212
2.81151
2.81316
2.81823
2.82548
2.83196
2.83611
2.83824
2.83976
2.84179
2.84496
2.84903
2.85338
2.85775
2.8623
2.8681
2.87828
2.89835
2.93197
2.9725
3.00328
3.01534
1
1
1
1
1
1
1
1
1
1
1
1
1
1
1
1
1
1
1
1
1
1
1
1
1
1
1
1
1
1
1
1
1
1
1
1
1
1
1
1
1
1
1
1
1
1
1
1
1
1
1
1
1.90236
2.67935
2.71838
2.72958
2.7421
2.7527
2.76178
2.76758
2.7694
2.76794
2.76405
2.7589
2.75508
2.75457
2.75801
2.76742
2.78127
2.79622
2.80862
2.81441
2.81477
2.81323
2.81087
2.81007
2.81181
2.81706
2.8245
2.83106
2.8351
2.83719
2.83881
2.841
2.84427
2.84837
2.85268
2.85701
2.86157
2.86741
2.87766
2.89782
2.93167
2.9725
3.00363
3.01589
1
1
1
1
1
1
1
1
1
1
1
1
1
1
1
1
1
1
1
1
1
1
1
1
1
1
1
1
1
1
1
1
1
1
1
1
1
1
1
1
1
1
1
1
1
1
1
1
1
1
1
1
1.85389
2.66928
2.71795
2.72877
2.74102
2.75107
2.75957
2.76491
2.76611
2.76436
2.76051
2.75598
2.75295
2.75333
2.7579
2.76823
2.78229
2.79667
2.80833
2.81345
2.81358
2.81199
2.80953
2.80856
2.81032
2.81564
2.82321
2.82987
2.83387
2.83595
2.83764
2.83995
2.84332
2.84749
2.85184
2.85613
2.86064
2.86644
2.87666
2.89688
2.93098
2.97228
3.00388
3.01649
1
1
1
1
1
1
1
1
1
1
1
1
1
1
1
1
1
1
1
1
1
1
1
1
1
1
1
1
1
1
1
1
1
1
1
1
1
1
1
1
1
1
1
1
1
1
1
1
1
1
1
1
1.79741
2.65554
2.71745
2.72765
2.73962
2.74891
2.75668
2.76145
2.76199
2.76032
2.75687
2.75332
2.75102
2.75215
2.7579
2.769
2.78309
2.79679
2.80758
2.81201
2.81195
2.81036
2.80793
2.80691
2.80867
2.814
2.82165
2.82843
2.83244
2.8345
2.8362
2.83859
2.84208
2.84641
2.85085
2.85514
2.85954
2.86521
2.87531
2.89556
2.92996
2.97178
3.00393
3.01694
1
1
1
1
1
1
1
1
1
1
1
1
1
1
1
1
1
1
1
1
1
1
1
1
1
1
1
1
1
1
1
1
1
1
1
1
1
1
1
1
1
1
1
1
1
1
1
1
1
1
1
1
1.73227
2.63785
2.71675
2.72567
2.73724
2.74588
2.75293
2.75717
2.75768
2.75647
2.75395
2.75132
2.74971
2.75138
2.75791
2.76941
2.78338
2.7965
2.80634
2.81014
2.80992
2.80827
2.80596
2.80506
2.80684
2.81217
2.81988
2.82678
2.83083
2.83283
2.8345
2.83694
2.84057
2.84509
2.84969
2.85399
2.85828
2.86372
2.87366
2.89395
2.92869
2.97109
3.00376
3.01708
1
1
1
1
1
1
1
1
1
1
1
1
1
1
1
1
1
1
1
1
1
1
1
1
1
1
1
1
1
1
1
1
1
1
1
1
1
1
1
1
1
1
1
1
1
1
1
1
1
1
1
1
1.64914
2.61377
2.71543
2.72275
2.73352
2.74155
2.74823
2.75233
2.75382
2.75355
2.75222
2.75032
2.74932
2.75116
2.75793
2.76943
2.78314
2.79573
2.80465
2.80787
2.80748
2.8057
2.80355
2.80291
2.8048
2.81017
2.81793
2.82494
2.82904
2.83095
2.83253
2.83499
2.83877
2.84349
2.8483
2.85266
2.85682
2.86203
2.87178
2.89213
2.92723
2.97017
3.00328
3.01683
1
1
1
1
1
1
1
1
1
1
1
1
1
1
1
1
1
1
1
1
1
1
1
1
1
1
1
1
1
1
1
1
1
1
1
1
1
1
1
1
1
1
1
1
1
1
1
1
1
1
1
1
1.55015
2.58321
2.71328
2.71843
2.7277
2.73558
2.74276
2.74746
2.75072
2.75197
2.75142
2.75011
2.74948
2.75131
2.75794
2.76912
2.78242
2.79454
2.8026
2.80526
2.80465
2.80269
2.80072
2.80047
2.80258
2.80814
2.81591
2.82294
2.82716
2.82891
2.83033
2.83277
2.83669
2.8416
2.84662
2.85107
2.85513
2.86014
2.86974
2.89017
2.92558
2.96898
3.00239
3.01606
1
1
1
1
1
1
1
1
1
1
1
1
1
1
1
1
1
1
1
1
1
1
1
1
1
1
1
1
1
1
1
1
1
1
1
1
1
1
1
1
1
1
1
1
1
1
1
1
1
1
1
1
1.44358
2.54403
2.7096
2.71284
2.72119
2.72968
2.73765
2.74392
2.74881
2.75125
2.75117
2.75028
2.74982
2.75152
2.75781
2.76849
2.78128
2.793
2.80023
2.80229
2.80146
2.79933
2.79754
2.79769
2.80023
2.8061
2.81386
2.82079
2.82511
2.82671
2.82794
2.8303
2.83429
2.83938
2.84457
2.84914
2.85315
2.85806
2.86761
2.8881
2.92376
2.96746
3.00101
3.01465
1
1
1
1
1
1
1
1
1
1
1
1
1
1
1
1
1
1
1
1
1
1
1
1
1
1
1
1
1
1
1
1
1
1
1
1
1
1
1
1
1
1
1
1
1
1
1
1
1
1
1
1
1.32619
2.49075
2.70342
2.70765
2.71654
2.72582
2.73455
2.74216
2.74824
2.75119
2.75138
2.75057
2.75004
2.7515
2.75729
2.76732
2.77959
2.791
2.79754
2.79904
2.79801
2.79577
2.7941
2.79454
2.79763
2.8039
2.81172
2.81857
2.8229
2.82442
2.82547
2.82766
2.83165
2.83682
2.84211
2.84676
2.8508
2.85573
2.86531
2.88588
2.92169
2.96554
2.9991
3.01254
1
1
1
1
1
1
1
1
1
1
1
1
1
1
1
1
1
1
1
1
1
1
1
1
1
1
1
1
1
1
1
1
1
1
1
1
1
1
1
1
1
1
1
1
1
1
1
1
1
1
1
1
1.20489
2.42523
2.69754
2.70467
2.71504
2.72452
2.73399
2.74251
2.74869
2.75151
2.75172
2.75073
2.74986
2.75098
2.75617
2.76559
2.77739
2.78846
2.79435
2.79535
2.79414
2.79188
2.79041
2.79114
2.79483
2.80158
2.80956
2.81633
2.82051
2.82199
2.82287
2.82485
2.82873
2.8339
2.83919
2.8439
2.84802
2.85307
2.86277
2.88342
2.91932
2.96323
2.99673
3.00988
1
1
1
1
1
1
1
1
1
1
1
1
1
1
1
1
1
1
1
1
1
1
1
1
1
1
1
1
1
1
1
1
1
1
1
1
1
1
1
1
1
1
1
1
1
1
1
1
1
1
1
1
1.07233
2.34718
2.69492
2.70591
2.71705
2.72649
2.73533
2.74317
2.74872
2.75134
2.75156
2.75056
2.74948
2.7502
2.75462
2.76315
2.77431
2.78494
2.79048
2.7913
2.79005
2.78794
2.78669
2.78772
2.79192
2.7991
2.80727
2.81393
2.81787
2.81934
2.8201
2.82189
2.82565
2.83073
2.83592
2.84062
2.84481
2.85002
2.85986
2.88058
2.91653
2.96048
2.99389
3.0067
1
1
1
1
1
1
1
1
1
1
1
1
1
1
1
1
1
1
1
1
1
1
1
1
1
1
1
1
1
1
1
1
1
1
1
1
1
1
1
1
1
1
1
1
1
1
1
1
1
1
1
1
1.00223
2.26356
2.69217
2.70681
2.71826
2.72813
2.73681
2.74405
2.74908
2.75159
2.7518
2.75066
2.74905
2.74911
2.75226
2.75962
2.77006
2.78035
2.78596
2.787
2.78588
2.78404
2.78302
2.78433
2.78899
2.79651
2.80484
2.81134
2.81501
2.81639
2.81706
2.8187
2.82231
2.82725
2.8323
2.83692
2.84114
2.84647
2.85644
2.87724
2.91324
2.95724
2.99063
3.00313
1
1
1
1
1
1
1
1
1
1
1
1
1
1
1
1
1
1
1
1
1
1
1
1
1
1
1
1
1
1
1
1
1
1
1
1
1
1
1
1
1
1
1
1
1
1
1
1
1
1
1
1
1.00001
2.15637
2.68585
2.70867
2.71981
2.72936
2.73775
2.7443
2.74871
2.75096
2.75096
2.74979
2.74781
2.74718
2.74917
2.75516
2.76469
2.77464
2.78072
2.78234
2.78154
2.78016
2.77947
2.78108
2.7862
2.79394
2.80231
2.80851
2.81182
2.81302
2.81361
2.81518
2.81873
2.82352
2.82845
2.83296
2.83711
2.84245
2.85246
2.87327
2.90931
2.95342
2.98686
2.99913
1
1
1
1
1
1
1
1
1
1
1
1
1
1
1
1
1
1
1
1
1
1
1
1
1
1
1
1
1
1
1
1
1
1
1
1
1
1
1
1
1
1
1
1
1
1
1
1
1
1
1
1
1
2.02663
2.67286
2.70751
2.71913
2.72833
2.7361
2.74208
2.74626
2.74878
2.74903
2.74795
2.74574
2.74444
2.74549
2.75003
2.75837
2.76788
2.7747
2.77724
2.77702
2.77627
2.77608
2.77807
2.78366
2.79145
2.7997
2.80549
2.80837
2.80928
2.80978
2.81137
2.8149
2.81952
2.82431
2.82864
2.83263
2.83792
2.84786
2.8686
2.90463
2.94892
2.98257
2.99475
1
1
1
1
1
1
1
1
1
1
1
1
1
1
1
1
1
1
1
1
1
1
1
1
1
1
1
1
1
1
1
1
1
1
1
1
1
1
1
1
1
1
1
1
1
1
1
1
1
1
1
1
1
1.88113
2.6501
2.70344
2.71466
2.72361
2.73069
2.73639
2.74083
2.7441
2.74533
2.74469
2.74279
2.74105
2.74136
2.74455
2.75163
2.76064
2.7682
2.77178
2.77236
2.77221
2.77264
2.77519
2.78119
2.78903
2.797
2.80223
2.80465
2.80519
2.80561
2.80726
2.81078
2.81518
2.81982
2.82393
2.82776
2.833
2.84281
2.8633
2.89914
2.94356
2.97753
2.98978
1
1
1
1
1
1
1
1
1
1
1
1
1
1
1
1
1
1
1
1
1
1
1
1
1
1
1
1
1
1
1
1
1
1
1
1
1
1
1
1
1
1
1
1
1
1
1
1
1
1
1
1
1
1.71641
2.61106
2.69551
2.70779
2.7165
2.72283
2.7284
2.73338
2.73757
2.74016
2.74034
2.73886
2.73699
2.73683
2.73913
2.74515
2.75366
2.76174
2.7662
2.76758
2.76803
2.76915
2.77237
2.77857
2.78659
2.79414
2.79869
2.80054
2.8007
2.80099
2.80277
2.8063
2.81045
2.81494
2.81879
2.82247
2.82766
2.83723
2.8573
2.89279
2.93729
2.97167
2.98415
1
1
1
1
1
1
1
1
1
1
1
1
1
1
1
1
1
1
1
1
1
1
1
1
1
1
1
1
1
1
1
1
1
1
1
1
1
1
1
1
1
1
1
1
1
1
1
1
1
1
1
1
1
1.50886
2.54054
2.68912
2.69821
2.70574
2.71153
2.71739
2.72335
2.7291
2.7335
2.73511
2.7342
2.73275
2.7326
2.73453
2.73983
2.74783
2.75597
2.76088
2.76283
2.76385
2.76567
2.76958
2.77591
2.78393
2.79085
2.79458
2.79582
2.79575
2.79603
2.79792
2.80137
2.80539
2.80968
2.81327
2.81688
2.82197
2.83118
2.85066
2.88557
2.92998
2.96473
2.97749
1
1
1
1
1
1
1
1
1
1
1
1
1
1
1
1
1
1
1
1
1
1
1
1
1
1
1
1
1
1
1
1
1
1
1
1
1
1
1
1
1
1
1
1
1
1
1
1
1
1
1
1
1
1.26869
2.4488
2.68884
2.69223
2.69868
2.70404
2.70962
2.7156
2.72187
2.72739
2.73035
2.73025
2.72956
2.72964
2.73135
2.73616
2.74362
2.75137
2.75629
2.7586
2.76006
2.76241
2.7668
2.77306
2.78077
2.78693
2.78987
2.7906
2.79036
2.79075
2.79265
2.79584
2.79986
2.80396
2.80733
2.81088
2.81573
2.82446
2.84319
2.87736
2.9216
2.95669
2.96979
1
1
1
1
1
1
1
1
1
1
1
1
1
1
1
1
1
1
1
1
1
1
1
1
1
1
1
1
1
1
1
1
1
1
1
1
1
1
1
1
1
1
1
1
1
1
1
1
1
1
1
1
1
1.07368
2.36591
2.68953
2.68787
2.69309
2.69888
2.70486
2.71081
2.7169
2.72232
2.72589
2.72703
2.72717
2.72789
2.72999
2.7348
2.74157
2.74829
2.75236
2.75447
2.75606
2.75883
2.76371
2.76997
2.77714
2.78237
2.78459
2.78491
2.78454
2.785
2.78682
2.78968
2.79373
2.79775
2.80107
2.80452
2.80898
2.81713
2.83494
2.86811
2.91194
2.94723
2.96054
1
1
1
1
1
1
1
1
1
1
1
1
1
1
1
1
1
1
1
1
1
1
1
1
1
1
1
1
1
1
1
1
1
1
1
1
1
1
1
1
1
1
1
1
1
1
1
1
1
1
1
1
1
1.00174
2.25345
2.69172
2.69016
2.69395
2.69952
2.70557
2.71128
2.71649
2.72041
2.72293
2.72395
2.72462
2.72614
2.72902
2.73417
2.74029
2.74597
2.74906
2.75076
2.75226
2.75523
2.76038
2.76649
2.77289
2.7771
2.77873
2.77879
2.77834
2.77871
2.78031
2.7828
2.78684
2.79094
2.79438
2.79758
2.80139
2.80874
2.82543
2.85747
2.90085
2.93635
2.94987
1
1
1
1
1
1
1
1
1
1
1
1
1
1
1
1
1
1
1
1
1
1
1
1
1
1
1
1
1
1
1
1
1
1
1
1
1
1
1
1
1
1
1
1
1
1
1
1
1
1
1
1
1
1
2.11238
2.68775
2.68977
2.69518
2.70152
2.70776
2.71312
2.71744
2.72024
2.72156
2.72187
2.72257
2.72474
2.72854
2.73405
2.73948
2.74415
2.74623
2.74733
2.74852
2.75139
2.7565
2.76228
2.76784
2.77115
2.77229
2.77222
2.77177
2.77192
2.77302
2.7752
2.77914
2.78342
2.78705
2.78996
2.79307
2.79945
2.81481
2.84543
2.88801
2.92346
2.9369
1
1
1
1
1
1
1
1
1
1
1
1
1
1
1
1
1
1
1
1
1
1
1
1
1
1
1
1
1
1
1
1
1
1
1
1
1
1
1
1
1
1
1
1
1
1
1
1
1
1
1
1
1
1
1.93044
2.65357
2.6848
2.69192
2.69979
2.70679
2.71266
2.71705
2.71932
2.71981
2.71951
2.72013
2.72284
2.72739
2.73328
2.73825
2.74189
2.74329
2.74388
2.74471
2.74719
2.75183
2.75705
2.76183
2.76448
2.76523
2.76517
2.76475
2.76468
2.76508
2.76692
2.77073
2.77519
2.77889
2.78132
2.78351
2.78851
2.80211
2.83104
2.87284
2.90841
2.922
1
1
1
1
1
1
1
1
1
1
1
1
1
1
1
1
1
1
1
1
1
1
1
1
1
1
1
1
1
1
1
1
1
1
1
1
1
1
1
1
1
1
1
1
1
1
1
1
1
1
1
1
1
1
1.6736
2.56603
2.67574
2.68163
2.69062
2.69895
2.70665
2.71258
2.71543
2.71591
2.71549
2.71617
2.71925
2.7242
2.73048
2.73535
2.7383
2.73952
2.73994
2.74053
2.74246
2.74627
2.75063
2.75476
2.75706
2.75758
2.75755
2.75717
2.75685
2.75659
2.75805
2.76174
2.76628
2.76971
2.77138
2.77253
2.77608
2.7878
2.81471
2.85506
2.89005
2.90293
1
1
1
1
1
1
1
1
1
1
1
1
1
1
1
1
1
1
1
1
1
1
1
1
1
1
1
1
1
1
1
1
1
1
1
1
1
1
1
1
1
1
1
1
1
1
1
1
1
1
1
1
1
1
1.33706
2.45012
2.66609
2.66311
2.67166
2.68292
2.69396
2.70288
2.70761
2.70913
2.70932
2.7104
2.71364
2.71824
2.72442
2.72946
2.73244
2.73423
2.73502
2.73565
2.73709
2.73988
2.74315
2.74655
2.74879
2.74945
2.74934
2.74888
2.74809
2.74759
2.74879
2.7523
2.75663
2.75938
2.75996
2.75985
2.76152
2.77034
2.794
2.83234
2.86692
2.88031
1
1
1
1
1
1
1
1
1
1
1
1
1
1
1
1
1
1
1
1
1
1
1
1
1
1
1
1
1
1
1
1
1
1
1
1
1
1
1
1
1
1
1
1
1
1
1
1
1
1
1
1
1
1
1.03913
2.34252
2.66621
2.66018
2.66548
2.67358
2.68317
2.69181
2.69722
2.69993
2.70121
2.70295
2.70618
2.70999
2.71548
2.72068
2.72424
2.72722
2.72888
2.72991
2.73108
2.73294
2.73506
2.73759
2.73977
2.74067
2.74054
2.73977
2.73867
2.7381
2.73918
2.74239
2.74602
2.74767
2.7469
2.74519
2.74486
2.75056
2.77056
2.80596
2.8376
2.84654
1
1
1
1
1
1
1
1
1
1
1
1
1
1
1
1
1
1
1
1
1
1
1
1
1
1
1
1
1
1
1
1
1
1
1
1
1
1
1
1
1
1
1
1
1
1
1
1
1
1
1
1
1
1
1.00032
2.20438
2.6567
2.66049
2.66549
2.6703
2.67597
2.68247
2.68768
2.69157
2.69398
2.69625
2.69894
2.70134
2.70525
2.70997
2.7142
2.71821
2.72117
2.72298
2.72415
2.72535
2.72655
2.72817
2.73007
2.73114
2.73096
2.72997
2.72873
2.72819
2.72916
2.73186
2.73437
2.73463
2.73251
2.72846
2.72562
2.72761
2.74054
2.76755
2.79346
2.79948
1
1
1
1
1
1
1
1
1
1
1
1
1
1
1
1
1
1
1
1
1
1
1
1
1
1
1
1
1
1
1
1
1
1
1
1
1
1
1
1
1
1
1
1
1
1
1
1
1
1
1
1
1
1
1
2.01473
2.64849
2.66603
2.66871
2.67221
2.67607
2.67942
2.68317
2.68669
2.68926
2.69122
2.69291
2.69418
2.6963
2.69987
2.70421
2.70872
2.71285
2.71553
2.71682
2.71754
2.71792
2.7186
2.71998
2.72104
2.7209
2.71993
2.71868
2.71814
2.71878
2.72051
2.72172
2.72068
2.71672
2.71
2.70318
2.70002
2.70523
2.72288
2.74328
2.75389
1
1
1
1
1
1
1
1
1
1
1
1
1
1
1
1
1
1
1
1
1
1
1
1
1
1
1
1
1
1
1
1
1
1
1
1
1
1
1
1
1
1
1
1
1
1
1
1
1
1
1
1
1
1
1
1.74549
2.57693
2.66176
2.66596
2.66994
2.67394
2.67781
2.68169
2.68506
2.68749
2.68872
2.68916
2.68922
2.68947
2.69145
2.69533
2.70011
2.70476
2.70823
2.70972
2.71005
2.7097
2.70953
2.7102
2.71093
2.71081
2.71001
2.70884
2.70813
2.70815
2.70855
2.70821
2.70571
2.69969
2.69027
2.67907
2.66925
2.66272
2.65679
2.6254
2.50186
1
1
1
1
1
1
1
1
1
1
1
1
1
1
1
1
1
1
1
1
1
1
1
1
1
1
1
1
1
1
1
1
1
1
1
1
1
1
1
1
1
1
1
1
1
1
1
1
1
1
1
1
1
1
1
1.38876
2.45694
2.6531
2.65368
2.65967
2.6673
2.67399
2.67933
2.68337
2.68595
2.68666
2.6863
2.68559
2.68464
2.68552
2.68848
2.69299
2.69757
2.7013
2.70287
2.7029
2.70205
2.70115
2.70122
2.70136
2.70117
2.70054
2.69945
2.69837
2.69739
2.69624
2.69405
2.68961
2.68157
2.66952
2.65387
2.63568
2.61471
2.58479
2.52312
2.33577
1
1
1
1
1
1
1
1
1
1
1
1
1
1
1
1
1
1
1
1
1
1
1
1
1
1
1
1
1
1
1
1
1
1
1
1
1
1
1
1
1
1
1
1
1
1
1
1
1
1
1
1
1
1
1
1.03978
2.32537
2.65208
2.64716
2.64976
2.65697
2.66628
2.67425
2.67982
2.68305
2.68391
2.68334
2.68229
2.68081
2.68094
2.68292
2.68683
2.69114
2.69455
2.69618
2.69607
2.69494
2.69354
2.69296
2.69251
2.6921
2.6915
2.69036
2.68873
2.68659
2.68367
2.67941
2.67286
2.66273
2.6481
2.62812
2.60278
2.56875
2.52686
2.42518
2.23711
1
1
1
1
1
1
1
1
1
1
1
1
1
1
1
1
1
1
1
1
1
1
1
1
1
1
1
1
1
1
1
1
1
1
1
1
1
1
1
1
1
1
1
1
1
1
1
1
1
1
1
1
1
1
1
1.00035
2.16926
2.62902
2.63355
2.64099
2.64908
2.65826
2.66682
2.67326
2.67728
2.67894
2.67879
2.67809
2.67674
2.67644
2.67785
2.68123
2.68509
2.68795
2.68958
2.68943
2.68817
2.68645
2.68527
2.68425
2.68345
2.68267
2.68128
2.67898
2.67562
2.67099
2.66466
2.65603
2.64373
2.6267
2.60304
2.57206
2.52976
2.47054
2.35977
2.18812
1
1
1
1
1
1
1
1
1
1
1
1
1
1
1
1
1
1
1
1
1
1
1
1
1
1
1
1
1
1
1
1
1
1
1
1
1
1
1
1
1
1
1
1
1
1
1
1
1
1
1
1
1
1
1
0.999999
1.93362
2.6003
2.63257
2.6398
2.64745
2.65414
2.66018
2.66535
2.66931
2.6718
2.67274
2.67273
2.67197
2.67152
2.67261
2.67543
2.67874
2.68118
2.68254
2.68251
2.68135
2.67957
2.67803
2.67653
2.67523
2.67398
2.67206
2.66893
2.66435
2.65819
2.65008
2.63956
2.6252
2.60584
2.57934
2.54364
2.49635
2.42714
2.32388
2.18746
1
1
1
1
1
1
1
1
1
1
1
1
1
1
1
1
1
1
1
1
1
1
1
1
1
1
1
1
1
1
1
1
1
1
1
1
1
1
1
1
1
1
1
1
1
1
1
1
1
1
1
1
1
1
1
1
1.57336
2.4988
2.63048
2.63679
2.64386
2.64883
2.65325
2.65727
2.66091
2.66386
2.66568
2.6663
2.66612
2.66573
2.66662
2.66898
2.67188
2.67398
2.67509
2.67526
2.67429
2.67264
2.67088
2.669
2.66711
2.66514
2.66247
2.65841
2.65264
2.64521
2.63574
2.62364
2.60757
2.58616
2.55754
2.51915
2.46882
2.39768
2.3046
2.19069
1
1
1
1
1
1
1
1
1
1
1
1
1
1
1
1
1
1
1
1
1
1
1
1
1
1
1
1
1
1
1
1
1
1
1
1
1
1
1
1
1
1
1
1
1
1
1
1
1
1
1
1
1
1
1
1
1.13752
2.35892
2.63152
2.63079
2.63499
2.64054
2.64522
2.64922
2.65296
2.65622
2.6585
2.65959
2.65985
2.65939
2.65996
2.66172
2.66413
2.66595
2.66696
2.66728
2.66659
2.66519
2.66339
2.66129
2.65891
2.65617
2.65258
2.64747
2.64055
2.63206
2.62159
2.60836
2.59102
2.5681
2.53804
2.49848
2.44676
2.37902
2.29784
2.19771
1
1
1
1
1
1
1
1
1
1
1
1
1
1
1
1
1
1
1
1
1
1
1
1
1
1
1
1
1
1
1
1
1
1
1
1
1
1
1
1
1
1
1
1
1
1
1
1
1
1
1
1
1
1
1
1
1.00419
2.21533
2.60911
2.61684
2.62394
2.6307
2.63649
2.64153
2.64583
2.64938
2.65182
2.65307
2.65352
2.65296
2.65311
2.65413
2.65591
2.65748
2.65843
2.65875
2.65818
2.65687
2.655
2.6528
2.65019
2.6469
2.64241
2.63624
2.62823
2.61878
2.60749
2.59348
2.57541
2.55165
2.52094
2.48105
2.43028
2.36831
2.29534
2.20606
1
1
1
1
1
1
1
1
1
1
1
1
1
1
1
1
1
1
1
1
1
1
1
1
1
1
1
1
1
1
1
1
1
1
1
1
1
1
1
1
1
1
1
1
1
1
1
1
1
1
1
1
1
1
1
1
0.999998
1.96182
2.57948
2.61169
2.61902
2.62476
2.62987
2.63486
2.63947
2.64335
2.64589
2.64724
2.64774
2.64707
2.64652
2.64671
2.6476
2.64882
2.64967
2.64981
2.64912
2.64761
2.64556
2.64331
2.64059
2.63692
2.63172
2.62469
2.61583
2.60557
2.59355
2.57893
2.5605
2.53657
2.5059
2.4666
2.41839
2.36183
2.29556
2.21634
1
1
1
1
1
1
1
1
1
1
1
1
1
1
1
1
1
1
1
1
1
1
1
1
1
1
1
1
1
1
1
1
1
1
1
1
1
1
1
1
1
1
1
1
1
1
1
1
1
1
1
1
1
1
1
1
0.999999
1.56416
2.48512
2.60731
2.61247
2.61734
2.62263
2.62786
2.63261
2.63673
2.63945
2.64094
2.64164
2.64109
2.64016
2.63955
2.63966
2.64035
2.64097
2.64086
2.6398
2.63782
2.63538
2.63289
2.62998
2.62603
2.62037
2.61281
2.60347
2.59259
2.57987
2.56462
2.54592
2.52226
2.49261
2.45457
2.40884
2.35741
2.29648
2.22787
1
1
1
1
1
1
1
1
1
1
1
1
1
1
1
1
1
1
1
1
1
1
1
1
1
1
1
1
1
1
1
1
1
1
1
1
1
1
1
1
1
1
1
1
1
1
1
1
1
1
1
1
1
1
1
1
1
1.08747
2.33175
2.61048
2.60698
2.60941
2.6141
2.61952
2.62456
2.6291
2.63229
2.63419
2.63518
2.63486
2.63372
2.63236
2.63156
2.63178
2.63211
2.63186
2.63053
2.62819
2.62526
2.62218
2.61868
2.61418
2.60809
2.60031
2.5909
2.5798
2.56662
2.5508
2.53175
2.50831
2.48046
2.44369
2.40119
2.35445
2.2983
2.23856
1
1
1
1
1
1
1
1
1
1
1
1
1
1
1
1
1
1
1
1
1
1
1
1
1
1
1
1
1
1
1
1
1
1
1
1
1
1
1
1
1
1
1
1
1
1
1
1
1
1
1
1
1
1
1
1
1
1.00166
2.15419
2.58143
2.59287
2.6013
2.6071
2.61163
2.61626
2.62071
2.62418
2.62656
2.62791
2.62805
2.62693
2.62516
2.62365
2.62318
2.62316
2.6228
2.62148
2.61902
2.61562
2.61174
2.60728
2.60193
2.59534
2.58743
2.57811
2.5671
2.5538
2.53765
2.51827
2.49482
2.46827
2.43335
2.39529
2.35204
2.30036
2.24707
1
1
1
1
1
1
1
1
1
1
1
1
1
1
1
1
1
1
1
1
1
1
1
1
1
1
1
1
1
1
1
1
1
1
1
1
1
1
1
1
1
1
1
1
1
1
1
1
1
1
1
1
1
1
1
1
1
0.999993
1.81991
2.53001
2.58948
2.59686
2.60103
2.60509
2.609
2.61289
2.61627
2.61882
2.62027
2.62064
2.61959
2.61765
2.61561
2.61441
2.61401
2.61363
2.6126
2.6104
2.60677
2.60205
2.59638
2.5899
2.58263
2.57448
2.56523
2.55442
2.54128
2.5252
2.5057
2.48237
2.45605
2.42359
2.38975
2.34895
2.30227
2.25378
1
1
1
1
1
1
1
1
1
1
1
1
1
1
1
1
1
1
1
1
1
1
1
1
1
1
1
1
1
1
1
1
1
1
1
1
1
1
1
1
1
1
1
1
1
1
1
1
1
1
1
1
1
1
1
1
1
0.999999
1.33826
2.40904
2.58868
2.58788
2.59186
2.59672
2.60071
2.60451
2.60792
2.61062
2.61216
2.61266
2.61187
2.61004
2.60774
2.60585
2.60491
2.60444
2.60371
2.60191
2.59837
2.59307
2.58632
2.57873
2.57075
2.56227
2.55296
2.54221
2.52921
2.5133
2.49402
2.47112
2.44457
2.41472
2.38357
2.34487
2.30369
2.25923
1
1
1
1
1
1
1
1
1
1
1
1
1
1
1
1
1
1
1
1
1
1
1
1
1
1
1
1
1
1
1
1
1
1
1
1
1
1
1
1
1
1
1
1
1
1
1
1
1
1
1
1
1
1
1
1
1
1
1.02648
2.26071
2.57678
2.57664
2.58139
2.58719
2.5919
2.5962
2.59978
2.60247
2.60386
2.60418
2.60364
2.60206
2.59975
2.59738
2.59582
2.59513
2.5946
2.59327
2.59013
2.58473
2.57731
2.56882
2.56011
2.55122
2.54173
2.53083
2.5178
2.50197
2.48316
2.46076
2.4347
2.40719
2.37677
2.34101
2.30475
2.26355
1
1
1
1
1
1
1
1
1
1
1
1
1
1
1
1
1
1
1
1
1
1
1
1
1
1
1
1
1
1
1
1
1
1
1
1
1
1
1
1
1
1
1
1
1
1
1
1
1
1
1
1
1
1
1
1
1
1
1.00012
1.96958
2.54471
2.56643
2.57313
2.57921
2.5839
2.58853
2.59234
2.59494
2.59597
2.59597
2.59549
2.59412
2.59193
2.58925
2.58694
2.5857
2.58512
2.58409
2.58148
2.57646
2.56895
2.56
2.55074
2.54146
2.53174
2.5206
2.50751
2.49159
2.47316
2.45137
2.42671
2.40036
2.3703
2.33854
2.30499
2.26602
1
1
1
1
1
1
1
1
1
1
1
1
1
1
1
1
1
1
1
1
1
1
1
1
1
1
1
1
1
1
1
1
1
1
1
1
1
1
1
1
1
1
1
1
1
1
1
1
1
1
1
1
1
1
1
1
1
1
1
1.49415
2.44933
2.56419
2.56375
2.56825
2.5738
2.57945
2.5842
2.58722
2.58804
2.58789
2.58738
2.58615
2.58414
2.58134
2.57836
2.57634
2.57536
2.57436
2.5722
2.56782
2.56075
2.55182
2.54227
2.53266
2.52272
2.51142
2.49842
2.48234
2.46444
2.4433
2.4199
2.39425
2.36579
2.3367
2.30452
2.26792
1
1
1
1
1
1
1
1
1
1
1
1
1
1
1
1
1
1
1
1
1
1
1
1
1
1
1
1
1
1
1
1
1
1
1
1
1
1
1
1
1
1
1
1
1
1
1
1
1
1
1
1
1
1
1
1
1
1
1
1.05832
2.28892
2.56229
2.55803
2.55969
2.5647
2.57063
2.57592
2.57931
2.58014
2.57996
2.57949
2.57835
2.5764
2.57355
2.57015
2.5674
2.56574
2.56446
2.5624
2.55855
2.55211
2.54354
2.53398
2.52419
2.51414
2.50294
2.4902
2.47433
2.45708
2.43618
2.41408
2.38997
2.36313
2.33469
2.30371
2.27028
1
1
1
1
1
1
1
1
1
1
1
1
1
1
1
1
1
1
1
1
1
1
1
1
1
1
1
1
1
1
1
1
1
1
1
1
1
1
1
1
1
1
1
1
1
1
1
1
1
1
1
1
1
1
1
1
1
1
1
1.00064
2.00976
2.52657
2.54394
2.55201
2.55807
2.56354
2.56848
2.57172
2.57255
2.57219
2.57156
2.57032
2.56835
2.56558
2.56216
2.55905
2.55669
2.55478
2.55249
2.54879
2.54288
2.53486
2.52553
2.51574
2.50565
2.49468
2.48239
2.46728
2.45039
2.43023
2.40991
2.38663
2.36045
2.33289
2.30422
2.27326
1
1
1
1
1
1
1
1
1
1
1
1
1
1
1
1
1
1
1
1
1
1
1
1
1
1
1
1
1
1
1
1
1
1
1
1
1
1
1
1
1
1
1
1
1
1
1
1
1
1
1
1
1
1
1
1
1
1
1
0.999998
1.51382
2.43328
2.54498
2.54531
2.54908
2.55426
2.55922
2.56281
2.56429
2.56402
2.56332
2.56198
2.55998
2.55729
2.55402
2.55086
2.548
2.54541
2.54263
2.53884
2.53323
2.5257
2.51669
2.50701
2.49695
2.48623
2.47452
2.46033
2.44399
2.42549
2.40609
2.38292
2.35804
2.33227
2.3057
2.27601
1
1
1
1
1
1
1
1
1
1
1
1
1
1
1
1
1
1
1
1
1
1
1
1
1
1
1
1
1
1
1
1
1
1
1
1
1
1
1
1
1
1
1
1
1
1
1
1
1
1
1
1
1
1
1
1
1
1
1
1
1.06264
2.27292
2.54062
2.53733
2.54041
2.54463
2.54911
2.55307
2.55548
2.55559
2.55492
2.55347
2.55139
2.54879
2.54569
2.54255
2.53932
2.53614
2.53276
2.52885
2.52341
2.51631
2.50769
2.49821
2.48833
2.47767
2.46641
2.45312
2.43787
2.42109
2.40194
2.3799
2.35662
2.3323
2.30681
2.27796
1
1
1
1
1
1
1
1
1
1
1
1
1
1
1
1
1
1
1
1
1
1
1
1
1
1
1
1
1
1
1
1
1
1
1
1
1
1
1
1
1
1
1
1
1
1
1
1
1
1
1
1
1
1
1
1
1
1
1
1
1.00073
1.96003
2.50064
2.52591
2.53254
2.5368
2.54065
2.5442
2.5468
2.54745
2.54676
2.54519
2.54296
2.54032
2.53721
2.53394
2.53037
2.52676
2.52298
2.51877
2.5136
2.50691
2.49866
2.48938
2.47985
2.46904
2.45798
2.44551
2.43155
2.41596
2.39756
2.37735
2.35525
2.33174
2.30665
2.27963
1
1
1
1
1
1
1
1
1
1
1
1
1
1
1
1
1
1
1
1
1
1
1
1
1
1
1
1
1
1
1
1
1
1
1
1
1
1
1
1
1
1
1
1
1
1
1
1
1
1
1
1
1
1
1
1
1
1
1
1
0.999998
1.40918
2.39391
2.53097
2.52566
2.52745
2.53074
2.53412
2.5371
2.53873
2.53833
2.537
2.53477
2.53206
2.52883
2.52534
2.52154
2.51761
2.51361
2.50918
2.50394
2.49768
2.48977
2.4808
2.47157
2.46081
2.44978
2.43781
2.42488
2.41019
2.39322
2.37462
2.35332
2.33067
2.30678
2.28198
1
1
1
1
1
1
1
1
1
1
1
1
1
1
1
1
1
1
1
1
1
1
1
1
1
1
1
1
1
1
1
1
1
1
1
1
1
1
1
1
1
1
1
1
1
1
1
1
1
1
1
1
1
1
1
1
1
1
1
1
1
1.03724
2.22901
2.51229
2.51239
2.51657
2.52074
2.52401
2.5273
2.52975
2.52993
2.52906
2.52698
2.52408
2.52061
2.51679
2.51294
2.5089
2.50482
2.50025
2.49499
2.48865
2.48113
2.47246
2.46338
2.45285
2.44179
2.43006
2.4178
2.404
2.38856
2.37101
2.35069
2.32947
2.30702
2.28364
1
1
1
1
1
1
1
1
1
1
1
1
1
1
1
1
1
1
1
1
1
1
1
1
1
1
1
1
1
1
1
1
1
1
1
1
1
1
1
1
1
1
1
1
1
1
1
1
1
1
1
1
1
1
1
1
1
1
1
1
1
1.00022
1.83142
2.45908
2.50123
2.50972
2.51275
2.51531
2.51847
2.52117
2.52201
2.52131
2.51934
2.51629
2.51256
2.50846
2.50464
2.50074
2.49673
2.49214
2.48673
2.48032
2.47275
2.46433
2.45534
2.44517
2.43421
2.42263
2.41073
2.39772
2.38334
2.36664
2.34787
2.32812
2.30688
2.28413
1
1
1
1
1
1
1
1
1
1
1
1
1
1
1
1
1
1
1
1
1
1
1
1
1
1
1
1
1
1
1
1
1
1
1
1
1
1
1
1
1
1
1
1
1
1
1
1
1
1
1
1
1
1
1
1
1
1
1
1
1
0.999999
1.21102
2.32121
2.508
2.50162
2.50263
2.50558
2.50896
2.512
2.51347
2.51297
2.51126
2.50827
2.50446
2.50025
2.49646
2.49281
2.48887
2.48439
2.47893
2.47244
2.46482
2.45634
2.44741
2.43766
2.42696
2.41563
2.40393
2.39135
2.3775
2.36181
2.34454
2.32589
2.30561
2.28374
1
1
1
1
1
1
1
1
1
1
1
1
1
1
1
1
1
1
1
1
1
1
1
1
1
1
1
1
1
1
1
1
1
1
1
1
1
1
1
1
1
1
1
1
1
1
1
1
1
1
1
1
1
1
1
1
1
1
1
1
1
1
1.00933
2.10948
2.47914
2.4828
2.49021
2.49551
2.4999
2.50339
2.50534
2.50499
2.50343
2.50047
2.49655
2.49226
2.4884
2.48482
2.48097
2.47668
2.47134
2.46488
2.4572
2.44859
2.43968
2.43023
2.41993
2.40897
2.39743
2.38502
2.37151
2.35682
2.34069
2.32301
2.30373
2.2833
1
1
1
1
1
1
1
1
1
1
1
1
1
1
1
1
1
1
1
1
1
1
1
1
1
1
1
1
1
1
1
1
1
1
1
1
1
1
1
1
1
1
1
1
1
1
1
1
1
1
1
1
1
1
1
1
1
1
1
1
1
1
1
1.59427
2.39553
2.48392
2.4833
2.48554
2.48963
2.49356
2.49644
2.4966
2.49546
2.49265
2.48867
2.48432
2.48031
2.47661
2.47279
2.4686
2.46352
2.45734
2.44985
2.44131
2.43247
2.42316
2.41315
2.4025
2.39113
2.37884
2.36579
2.35179
2.33638
2.31972
2.30174
2.28294
1
1
1
1
1
1
1
1
1
1
1
1
1
1
1
1
1
1
1
1
1
1
1
1
1
1
1
1
1
1
1
1
1
1
1
1
1
1
1
1
1
1
1
1
1
1
1
1
1
1
1
1
1
1
1
1
1
1
1
1
1
1
0.999998
1.08549
2.23305
2.47985
2.47473
2.47644
2.47927
2.48279
2.48592
2.48679
2.48626
2.48427
2.48076
2.47652
2.47232
2.46829
2.46429
2.46004
2.45519
2.4494
2.44241
2.43427
2.42568
2.4165
2.40662
2.39612
2.38486
2.3728
2.36019
2.34666
2.33203
2.31647
2.29981
2.28229
1
1
1
1
1
1
1
1
1
1
1
1
1
1
1
1
1
1
1
1
1
1
1
1
1
1
1
1
1
1
1
1
1
1
1
1
1
1
1
1
1
1
1
1
1
1
1
1
1
1
1
1
1
1
1
1
1
1
1
1
1
1
0.999999
1.00136
1.86054
2.42411
2.46027
2.46845
2.47225
2.47489
2.47718
2.47787
2.47743
2.47582
2.47279
2.46885
2.46462
2.46034
2.45604
2.45151
2.44665
2.44116
2.4348
2.42736
2.41923
2.41033
2.40054
2.39
2.37871
2.36682
2.35452
2.34147
2.32772
2.3132
2.29757
2.28075
1
1
1
1
1
1
1
1
1
1
1
1
1
1
1
1
1
1
1
1
1
1
1
1
1
1
1
1
1
1
1
1
1
1
1
1
1
1
1
1
1
1
1
1
1
1
1
1
1
1
1
1
1
1
1
1
1
1
1
1
1
1
1
0.999999
1.21372
2.2823
2.46805
2.46208
2.46407
2.46667
2.4683
2.46832
2.46778
2.46638
2.46392
2.46053
2.45653
2.4522
2.44769
2.44294
2.43797
2.43259
2.42666
2.41993
2.41249
2.40413
2.39463
2.38414
2.37283
2.36108
2.34907
2.33655
2.3235
2.30974
2.29491
2.27878
1
1
1
1
1
1
1
1
1
1
1
1
1
1
1
1
1
1
1
1
1
1
1
1
1
1
1
1
1
1
1
1
1
1
1
1
1
1
1
1
1
1
1
1
1
1
1
1
1
1
1
1
1
1
1
1
1
1
1
1
1
1
1
1
1.00971
2.03902
2.43376
2.44396
2.45166
2.45703
2.45977
2.45963
2.45884
2.45742
2.45532
2.45236
2.44866
2.44443
2.43989
2.43503
2.42992
2.42447
2.41871
2.41249
2.40571
2.39797
2.3889
2.37858
2.36733
2.35567
2.34382
2.33166
2.31906
2.30582
2.29171
2.27653
1
1
1
1
1
1
1
1
1
1
1
1
1
1
1
1
1
1
1
1
1
1
1
1
1
1
1
1
1
1
1
1
1
1
1
1
1
1
1
1
1
1
1
1
1
1
1
1
1
1
1
1
1
1
1
1
1
1
1
1
1
1
1
1
1.00001
1.43355
2.32373
2.45009
2.44548
2.44714
2.44979
2.44994
2.44932
2.44806
2.44619
2.44356
2.44026
2.43634
2.43198
2.42717
2.42198
2.41641
2.41063
2.40471
2.3985
2.3914
2.38285
2.3729
2.36195
2.35049
2.33877
2.3268
2.31444
2.30161
2.28823
2.27411
1
1
1
1
1
1
1
1
1
1
1
1
1
1
1
1
1
1
1
1
1
1
1
1
1
1
1
1
1
1
1
1
1
1
1
1
1
1
1
1
1
1
1
1
1
1
1
1
1
1
1
1
1
1
1
1
1
1
1
1
1
1
1
1
1
1.04142
2.14012
2.43186
2.43282
2.43523
2.43775
2.43954
2.43952
2.43888
2.4374
2.43506
2.43204
2.42846
2.4244
2.41974
2.41453
2.40881
2.40287
2.39704
2.3912
2.38469
2.37677
2.36735
2.35685
2.34562
2.33395
2.32197
2.30964
2.29715
2.28458
2.27153
1
1
1
1
1
1
1
1
1
1
1
1
1
1
1
1
1
1
1
1
1
1
1
1
1
1
1
1
1
1
1
1
1
1
1
1
1
1
1
1
1
1
1
1
1
1
1
1
1
1
1
1
1
1
1
1
1
1
1
1
1
1
1
1
1
1.00029
1.6221
2.34994
2.42731
2.42768
2.42802
2.42913
2.4301
2.42985
2.42876
2.42666
2.42376
2.42039
2.41657
2.41213
2.407
2.40126
2.39526
2.38939
2.38362
2.37741
2.37004
2.36132
2.3515
2.34076
2.32933
2.31738
2.305
2.2927
2.28079
2.26865
1
1
1
1
1
1
1
1
1
1
1
1
1
1
1
1
1
1
1
1
1
1
1
1
1
1
1
1
1
1
1
1
1
1
1
1
1
1
1
1
1
1
1
1
1
1
1
1
1
1
1
1
1
1
1
1
1
1
1
1
1
1
1
1
1
1
1.09497
2.18099
2.42478
2.42
2.41933
2.41965
2.42041
2.42038
2.41971
2.41798
2.41541
2.41235
2.40879
2.40459
2.39962
2.39401
2.38798
2.38189
2.37586
2.36965
2.36283
2.35507
2.34621
2.33617
2.32507
2.31321
2.30087
2.28873
2.27723
2.26563
1
1
1
1
1
1
1
1
1
1
1
1
1
1
1
1
1
1
1
1
1
1
1
1
1
1
1
1
1
1
1
1
1
1
1
1
1
1
1
1
1
1
1
1
1
1
1
1
1
1
1
1
1
1
1
1
1
1
1
1
1
1
1
1
1
1
1.00165
1.73562
2.34959
2.40549
2.40998
2.41207
2.41272
2.41234
2.41125
2.40953
2.4072
2.4044
2.40102
2.39699
2.3922
2.38676
2.38078
2.37445
2.36798