/*--------------------------------*- C++ -*----------------------------------*\
  =========                 |
  \\      /  F ield         | OpenFOAM: The Open Source CFD Toolbox
   \\    /   O peration     | Website:  https://openfoam.org
    \\  /    A nd           | Version:  7
     \\/     M anipulation  |
\*---------------------------------------------------------------------------*/
FoamFile
{
    version     2.0;
    format      ascii;
    class       volVectorField;
    location    "1.3";
    object      U;
}
// * * * * * * * * * * * * * * * * * * * * * * * * * * * * * * * * * * * * * //

dimensions      [0 1 -1 0 0 0 0];

internalField   nonuniform List<vector> 
64512
(
(3 3.1005e-17 0)
(3 1.43388e-16 0)
(3 -1.33392e-16 0)
(3 -8.55476e-16 0)
(3 -5.72722e-16 0)
(3 -1.32766e-16 0)
(3 2.76969e-16 0)
(3 -1.25818e-16 0)
(3 -4.86719e-16 0)
(3 -8.31977e-16 0)
(3 -1.28118e-15 0)
(3 -1.58395e-15 0)
(3 -1.40165e-15 0)
(3 -1.31905e-15 0)
(3 -1.09838e-15 0)
(3 -7.28914e-16 0)
(3 -7.2405e-16 0)
(3 -5.52774e-16 0)
(3 -2.06956e-16 0)
(3 -1.697e-16 0)
(3 -1.0435e-15 0)
(3 -1.33935e-15 0)
(3 -7.79633e-16 0)
(3 -4.53265e-16 0)
(3 4.17486e-17 0)
(3 8.03512e-16 0)
(3 1.87848e-16 0)
(3 -3.05756e-16 0)
(3 -3.72879e-16 0)
(3 -2.19134e-16 0)
(3 3.28391e-16 0)
(3 6.89777e-16 0)
(3 4.68236e-16 0)
(3 -6.31935e-17 0)
(3 -3.8657e-18 0)
(3 -8.17033e-17 0)
(3 -3.87055e-16 0)
(3 -2.6058e-16 0)
(3 -9.18179e-17 0)
(3 -1.34311e-16 0)
(3 -3.20672e-17 0)
(3 3.04626e-16 0)
(3 4.14574e-16 0)
(3 1.53325e-16 0)
(3 5.91119e-17 0)
(3 6.35428e-17 0)
(3 2.362e-16 0)
(3 5.7247e-16 0)
(3 9.02397e-16 0)
(3 1.55529e-15 0)
(3 2.45613e-15 0)
(3 -1.09558e-15 0)
(1.52308 0.00467128 0)
(0.764807 0.00566 0)
(0.71758 0.00829793 0)
(0.700428 0.00589939 0)
(0.68504 0.00502675 0)
(0.671733 0.00505086 0)
(0.658141 0.00560378 0)
(0.643407 0.00660957 0)
(0.626737 0.00788778 0)
(0.608346 0.00917356 0)
(0.589699 0.00969655 0)
(0.572587 0.00883259 0)
(0.557754 0.00773498 0)
(0.543591 0.00730973 0)
(0.528446 0.0075282 0)
(0.511119 0.00738053 0)
(0.493189 0.00685231 0)
(0.476957 0.00606451 0)
(0.463384 0.00560387 0)
(0.45 0.00599416 0)
(0.434645 0.0068926 0)
(0.416905 0.00804442 0)
(0.397368 0.00878476 0)
(0.378557 0.00856724 0)
(0.361923 0.00791871 0)
(0.346121 0.00763838 0)
(0.330252 0.00773704 0)
(0.313506 0.00792133 0)
(0.295389 0.00810982 0)
(0.277551 0.00832413 0)
(0.260369 0.00854924 0)
(0.243254 0.00871854 0)
(0.225263 0.00879472 0)
(0.206744 0.0088938 0)
(0.18793 0.00903724 0)
(0.169482 0.00915321 0)
(0.151426 0.00933065 0)
(0.133229 0.0094898 0)
(0.114072 0.00967382 0)
(0.0935238 0.00997136 0)
(0.0720018 0.0103502 0)
(0.050398 0.0107702 0)
(0.0291498 0.0110715 0)
(0.0107294 0.0113587 0)
(3 -9.44088e-17 0)
(3 -1.42526e-16 0)
(3 -2.81058e-16 0)
(3 -5.86359e-16 0)
(3 -2.51726e-16 0)
(3 2.83629e-16 0)
(3 4.25657e-16 0)
(3 -2.51201e-16 0)
(3 -4.58514e-16 0)
(3 -6.60235e-16 0)
(3 -1.61345e-15 0)
(3 -3.02953e-15 0)
(3 -2.90487e-15 0)
(3 -2.24627e-15 0)
(3 -2.21344e-15 0)
(3 -1.55758e-15 0)
(3 -1.12151e-15 0)
(3 -2.76616e-16 0)
(3 9.63627e-17 0)
(3 -3.57536e-16 0)
(3 -9.47552e-16 0)
(3 -1.5524e-15 0)
(3 -1.21901e-15 0)
(3 -1.19796e-15 0)
(3 1.05121e-16 0)
(3 1.3793e-15 0)
(3 1.46915e-15 0)
(3 4.1832e-16 0)
(3 -1.4484e-16 0)
(3 -7.49888e-17 0)
(3 1.55278e-16 0)
(3 1.40192e-16 0)
(3 5.72242e-17 0)
(3 -2.75041e-16 0)
(3 -3.80819e-16 0)
(3 -2.76578e-16 0)
(3 -2.07232e-16 0)
(3 6.94917e-16 0)
(3 1.12416e-15 0)
(3 7.30313e-16 0)
(3 -1.32446e-16 0)
(3 -3.02004e-16 0)
(3 -2.66718e-16 0)
(3 -6.9058e-16 0)
(3 4.05375e-17 0)
(3 5.8504e-16 0)
(3 1.02595e-15 0)
(3 1.80535e-15 0)
(3 1.81352e-15 0)
(3 1.95944e-15 0)
(3 1.71301e-15 0)
(3 -5.85984e-16 0)
(1.52958 0.0205156 0)
(0.762456 0.0212045 0)
(0.71489 0.0242401 0)
(0.698533 0.0185335 0)
(0.68222 0.0155207 0)
(0.668001 0.0146008 0)
(0.653778 0.0158565 0)
(0.638636 0.0188566 0)
(0.621686 0.0227731 0)
(0.603216 0.0265236 0)
(0.584718 0.0279078 0)
(0.568129 0.0254794 0)
(0.553803 0.0223776 0)
(0.540091 0.0210807 0)
(0.525665 0.0217219 0)
(0.509179 0.0215504 0)
(0.491803 0.0203902 0)
(0.475589 0.0185743 0)
(0.461334 0.0173992 0)
(0.446961 0.0182757 0)
(0.430855 0.0206529 0)
(0.412844 0.0238056 0)
(0.393451 0.0258434 0)
(0.375051 0.0252332 0)
(0.358713 0.0235125 0)
(0.343015 0.0227568 0)
(0.327035 0.0229677 0)
(0.310274 0.0234311 0)
(0.292344 0.0240035 0)
(0.274665 0.0247669 0)
(0.257552 0.0255073 0)
(0.240523 0.0260021 0)
(0.222785 0.0261989 0)
(0.204537 0.0264927 0)
(0.185938 0.0269963 0)
(0.167637 0.0274617 0)
(0.149651 0.0280437 0)
(0.131555 0.0284805 0)
(0.112674 0.0289736 0)
(0.0925355 0.0298361 0)
(0.071439 0.0310214 0)
(0.0501686 0.0324297 0)
(0.0291294 0.0334936 0)
(0.0106877 0.0346121 0)
(3 -1.75567e-16 0)
(3 -4.76547e-16 0)
(3 -2.16076e-16 0)
(3 -8.36169e-17 0)
(3 -1.61289e-18 0)
(3 2.07607e-16 0)
(3 2.03343e-16 0)
(3 1.13148e-16 0)
(3 3.25548e-16 0)
(3 3.18748e-16 0)
(3 -1.03255e-16 0)
(3 -8.68012e-16 0)
(3 -1.21592e-15 0)
(3 -1.923e-15 0)
(3 -1.85946e-15 0)
(3 -1.7864e-15 0)
(3 -1.91875e-15 0)
(3 -1.45263e-15 0)
(3 -1.90239e-15 0)
(3 -2.15718e-15 0)
(3 -1.91941e-15 0)
(3 -2.09444e-15 0)
(3 -2.14747e-15 0)
(3 -1.1582e-15 0)
(3 3.8631e-16 0)
(3 1.22756e-15 0)
(3 2.09728e-15 0)
(3 2.68096e-15 0)
(3 1.92565e-15 0)
(3 1.2826e-15 0)
(3 7.69523e-16 0)
(3 6.58529e-16 0)
(3 4.63226e-16 0)
(3 4.97281e-16 0)
(3 -3.99908e-16 0)
(3 2.66401e-16 0)
(3 1.23273e-15 0)
(3 1.24497e-15 0)
(3 1.22828e-15 0)
(3 7.07463e-16 0)
(3 -3.23579e-16 0)
(3 -5.98338e-16 0)
(3 -1.03846e-15 0)
(3 -1.27438e-15 0)
(3 -7.72999e-16 0)
(3 -1.31355e-16 0)
(3 1.64672e-16 0)
(3 7.5523e-17 0)
(3 -2.83097e-16 0)
(3 8.15608e-16 0)
(3 9.87843e-16 0)
(3 3.99573e-15 0)
(1.55302 0.0370053 0)
(0.76574 0.0360324 0)
(0.717979 0.0388481 0)
(0.702179 0.0313174 0)
(0.684441 0.0275596 0)
(0.668419 0.0262477 0)
(0.652475 0.0279197 0)
(0.636145 0.0325129 0)
(0.618458 0.0387161 0)
(0.599623 0.0444175 0)
(0.581045 0.0459586 0)
(0.565013 0.0418859 0)
(0.551241 0.0369403 0)
(0.538009 0.0347159 0)
(0.524391 0.0355859 0)
(0.508906 0.0353167 0)
(0.492359 0.03369 0)
(0.476397 0.0313136 0)
(0.461439 0.0299336 0)
(0.44598 0.0316486 0)
(0.428884 0.035611 0)
(0.41039 0.0405752 0)
(0.390717 0.0433817 0)
(0.372318 0.041955 0)
(0.355868 0.0391136 0)
(0.340007 0.0380119 0)
(0.323784 0.0385284 0)
(0.307009 0.0393177 0)
(0.28921 0.0401982 0)
(0.271499 0.0412233 0)
(0.254177 0.042265 0)
(0.236998 0.043067 0)
(0.219358 0.0434943 0)
(0.201313 0.0440147 0)
(0.182938 0.0447873 0)
(0.164772 0.0454827 0)
(0.146812 0.0464151 0)
(0.128824 0.047184 0)
(0.110298 0.0480618 0)
(0.0907122 0.0494779 0)
(0.0702501 0.0513287 0)
(0.0495653 0.0535679 0)
(0.0289287 0.055293 0)
(0.0105799 0.0571398 0)
(3 5.0672e-17 0)
(3 1.96691e-16 0)
(3 -1.32441e-16 0)
(3 -3.88778e-16 0)
(3 -5.49742e-16 0)
(3 -2.23663e-17 0)
(3 5.05974e-16 0)
(3 6.15511e-16 0)
(3 3.8779e-16 0)
(3 1.18987e-16 0)
(3 6.46778e-17 0)
(3 -1.55958e-17 0)
(3 -2.56063e-17 0)
(3 -1.24571e-15 0)
(3 -1.2302e-15 0)
(3 -8.32957e-16 0)
(3 -1.53959e-15 0)
(3 -2.58107e-15 0)
(3 -2.94065e-15 0)
(3 -2.63755e-15 0)
(3 -2.79707e-15 0)
(3 -2.91335e-15 0)
(3 -2.00547e-15 0)
(3 -1.25809e-15 0)
(3 5.61936e-16 0)
(3 1.95373e-15 0)
(3 2.50205e-15 0)
(3 2.58181e-15 0)
(3 2.87919e-15 0)
(3 2.40918e-15 0)
(3 1.73687e-15 0)
(3 2.16931e-15 0)
(3 2.35168e-15 0)
(3 2.25988e-15 0)
(3 1.86967e-15 0)
(3 1.98096e-15 0)
(3 2.18222e-15 0)
(3 1.66165e-15 0)
(3 9.51695e-16 0)
(3 5.69401e-16 0)
(3 -6.70926e-17 0)
(3 -7.3866e-16 0)
(3 -1.04602e-15 0)
(3 -1.29008e-15 0)
(3 -1.16338e-15 0)
(3 -1.14817e-15 0)
(3 -1.7559e-15 0)
(3 -1.90897e-15 0)
(3 -4.533e-16 0)
(3 5.32735e-16 0)
(3 6.85412e-16 0)
(3 -2.44523e-15 0)
(1.59125 0.0509828 0)
(0.770997 0.0490514 0)
(0.721481 0.0523253 0)
(0.705891 0.0443625 0)
(0.687616 0.0404005 0)
(0.670829 0.0388279 0)
(0.65387 0.0409332 0)
(0.636655 0.0470642 0)
(0.618346 0.0554134 0)
(0.599149 0.0625338 0)
(0.580581 0.0635228 0)
(0.565271 0.0577206 0)
(0.55198 0.0510995 0)
(0.539118 0.0478615 0)
(0.526115 0.0487169 0)
(0.511447 0.0483495 0)
(0.495586 0.0464577 0)
(0.479769 0.0440318 0)
(0.463974 0.0429798 0)
(0.447532 0.045863 0)
(0.429545 0.0515053 0)
(0.410721 0.0580728 0)
(0.390802 0.0612981 0)
(0.372372 0.058929 0)
(0.355599 0.0551098 0)
(0.339287 0.0537667 0)
(0.322609 0.0546755 0)
(0.305613 0.0557661 0)
(0.287831 0.0568364 0)
(0.269909 0.057994 0)
(0.252186 0.0592599 0)
(0.234622 0.0603376 0)
(0.216789 0.060991 0)
(0.198665 0.0616812 0)
(0.180347 0.0626268 0)
(0.162145 0.0634596 0)
(0.144052 0.0646855 0)
(0.12602 0.0657488 0)
(0.107717 0.0669556 0)
(0.0886419 0.0688772 0)
(0.0688158 0.0712998 0)
(0.0487761 0.0742413 0)
(0.02864 0.076536 0)
(0.0104487 0.0790729 0)
(3 4.64912e-17 0)
(3 5.82304e-17 0)
(3 -4.33616e-16 0)
(3 -3.29334e-16 0)
(3 -1.43274e-16 0)
(3 3.08249e-17 0)
(3 1.15932e-16 0)
(3 6.49221e-17 0)
(3 -1.52531e-16 0)
(3 -1.64012e-16 0)
(3 -3.87687e-16 0)
(3 -3.93189e-16 0)
(3 -1.18755e-16 0)
(3 2.1992e-16 0)
(3 -7.20044e-16 0)
(3 -1.71169e-15 0)
(3 -1.81478e-15 0)
(3 -2.32645e-15 0)
(3 -2.21114e-15 0)
(3 -2.12753e-15 0)
(3 -2.53604e-15 0)
(3 -2.11723e-15 0)
(3 -8.70861e-16 0)
(3 -8.01101e-16 0)
(3 -6.1344e-16 0)
(3 1.45489e-16 0)
(3 1.05819e-15 0)
(3 1.45398e-15 0)
(3 1.45358e-15 0)
(3 2.32543e-15 0)
(3 2.67191e-15 0)
(3 3.51417e-15 0)
(3 3.611e-15 0)
(3 2.78174e-15 0)
(3 2.26766e-15 0)
(3 1.91319e-15 0)
(3 1.76125e-15 0)
(3 1.11522e-15 0)
(3 9.05463e-16 0)
(3 8.97409e-16 0)
(3 -2.98709e-16 0)
(3 -1.2195e-15 0)
(3 -2.07686e-15 0)
(3 -2.09622e-15 0)
(3 -1.99311e-15 0)
(3 -2.07652e-15 0)
(3 -2.3543e-15 0)
(3 -2.02935e-15 0)
(3 -1.42194e-15 0)
(3 -1.64483e-15 0)
(3 -9.53281e-16 0)
(3 -2.84929e-15 0)
(1.64022 0.0632954 0)
(0.775173 0.0623666 0)
(0.721352 0.0657963 0)
(0.70621 0.0575618 0)
(0.688183 0.0536314 0)
(0.671419 0.0520812 0)
(0.653954 0.0547292 0)
(0.636079 0.0624292 0)
(0.617193 0.0727677 0)
(0.597671 0.0805355 0)
(0.579559 0.0801545 0)
(0.565664 0.0725765 0)
(0.553391 0.0644897 0)
(0.541314 0.0603304 0)
(0.529003 0.0611346 0)
(0.514973 0.060901 0)
(0.49952 0.0591155 0)
(0.483641 0.0571426 0)
(0.466876 0.0567619 0)
(0.4496 0.0609105 0)
(0.430938 0.068107 0)
(0.412057 0.0759443 0)
(0.39215 0.079221 0)
(0.373882 0.0759195 0)
(0.356822 0.0713257 0)
(0.339924 0.0698659 0)
(0.322921 0.0713276 0)
(0.305795 0.0727831 0)
(0.288073 0.0739339 0)
(0.269996 0.0751356 0)
(0.251888 0.0765557 0)
(0.233849 0.077871 0)
(0.215631 0.0787733 0)
(0.197222 0.0796243 0)
(0.178794 0.0806659 0)
(0.160383 0.0815901 0)
(0.141996 0.0830439 0)
(0.123711 0.0843358 0)
(0.105389 0.0858058 0)
(0.0866378 0.088099 0)
(0.0673397 0.09096 0)
(0.0478793 0.0944037 0)
(0.0282673 0.0971139 0)
(0.0103361 0.100287 0)
(3 -1.52555e-17 0)
(3 -3.76576e-16 0)
(3 -5.15408e-16 0)
(3 -4.20606e-16 0)
(3 5.10568e-17 0)
(3 -7.8735e-17 0)
(3 -3.4836e-16 0)
(3 -4.32782e-16 0)
(3 3.38964e-16 0)
(3 6.08139e-16 0)
(3 5.12459e-16 0)
(3 2.59828e-16 0)
(3 7.95079e-17 0)
(3 6.13124e-16 0)
(3 4.4106e-16 0)
(3 -3.32039e-16 0)
(3 -7.40527e-16 0)
(3 -7.07886e-16 0)
(3 -9.09355e-16 0)
(3 -1.46776e-15 0)
(3 -1.24748e-15 0)
(3 -5.1217e-16 0)
(3 -3.77065e-16 0)
(3 -3.03654e-16 0)
(3 3.06736e-16 0)
(3 1.03687e-15 0)
(3 1.76015e-15 0)
(3 2.10384e-15 0)
(3 1.92987e-15 0)
(3 2.91495e-15 0)
(3 3.15767e-15 0)
(3 3.07101e-15 0)
(3 2.52761e-15 0)
(3 1.96431e-15 0)
(3 1.88789e-15 0)
(3 2.63241e-15 0)
(3 2.77782e-15 0)
(3 2.20829e-15 0)
(3 6.65468e-16 0)
(3 -2.38591e-16 0)
(3 -1.22531e-15 0)
(3 -1.92832e-15 0)
(3 -2.37307e-15 0)
(3 -1.90277e-15 0)
(3 -1.99291e-15 0)
(3 -1.97576e-15 0)
(3 -1.6637e-15 0)
(3 -2.14936e-15 0)
(3 -2.45279e-15 0)
(3 -2.58278e-15 0)
(3 -1.65513e-15 0)
(3 -4.27629e-15 0)
(1.7005 0.0765996 0)
(0.779481 0.077286 0)
(0.720801 0.0786452 0)
(0.706762 0.0700506 0)
(0.689305 0.0663393 0)
(0.672671 0.0654185 0)
(0.654611 0.0692353 0)
(0.63577 0.0788899 0)
(0.615882 0.0909776 0)
(0.595885 0.0981878 0)
(0.578673 0.0955199 0)
(0.566736 0.0860607 0)
(0.555728 0.0767409 0)
(0.544495 0.072021 0)
(0.532614 0.072976 0)
(0.518656 0.0732874 0)
(0.503072 0.0720791 0)
(0.486862 0.0709204 0)
(0.469067 0.0714514 0)
(0.451103 0.0767606 0)
(0.432109 0.0852402 0)
(0.413507 0.0939048 0)
(0.393915 0.0968842 0)
(0.375956 0.0927408 0)
(0.358664 0.087625 0)
(0.341225 0.0862266 0)
(0.323959 0.0883001 0)
(0.306774 0.0902252 0)
(0.289232 0.0914202 0)
(0.271228 0.0926102 0)
(0.252942 0.0941214 0)
(0.234509 0.0956461 0)
(0.215848 0.0968336 0)
(0.197051 0.0978581 0)
(0.17842 0.0989986 0)
(0.159765 0.100041 0)
(0.141024 0.101669 0)
(0.122288 0.103136 0)
(0.103683 0.104782 0)
(0.0849725 0.107277 0)
(0.0659903 0.110373 0)
(0.0469822 0.114186 0)
(0.0278375 0.117154 0)
(0.0102597 0.120818 0)
(3 -2.39777e-17 0)
(3 1.43312e-16 0)
(3 3.85748e-16 0)
(3 -4.12635e-17 0)
(3 -4.47168e-16 0)
(3 -7.63689e-16 0)
(3 -6.50569e-16 0)
(3 1.93865e-17 0)
(3 3.19155e-16 0)
(3 3.22668e-16 0)
(3 1.83727e-16 0)
(3 -5.5497e-17 0)
(3 -2.21208e-16 0)
(3 2.22477e-16 0)
(3 9.27464e-16 0)
(3 1.28816e-15 0)
(3 6.91323e-16 0)
(3 -3.76465e-16 0)
(3 -1.376e-15 0)
(3 -1.67736e-15 0)
(3 -1.22052e-15 0)
(3 -1.33699e-17 0)
(3 3.944e-16 0)
(3 1.03881e-15 0)
(3 1.21082e-15 0)
(3 1.09103e-15 0)
(3 7.98173e-16 0)
(3 1.43203e-15 0)
(3 2.51697e-15 0)
(3 3.31961e-15 0)
(3 3.23995e-15 0)
(3 2.84657e-15 0)
(3 2.36021e-15 0)
(3 2.49527e-15 0)
(3 2.14986e-15 0)
(3 2.1223e-15 0)
(3 2.09486e-15 0)
(3 1.74368e-15 0)
(3 8.59003e-16 0)
(3 -9.96647e-16 0)
(3 -1.90077e-15 0)
(3 -1.74472e-15 0)
(3 -1.737e-15 0)
(3 -1.29946e-15 0)
(3 -1.89626e-15 0)
(3 -1.6408e-15 0)
(3 -1.11257e-15 0)
(3 -1.60587e-15 0)
(3 -2.32339e-15 0)
(3 -2.59013e-15 0)
(3 -1.96195e-15 0)
(3 -5.273e-15 0)
(1.77627 0.0903543 0)
(0.786353 0.0933674 0)
(0.721949 0.0907815 0)
(0.708708 0.0819888 0)
(0.691302 0.0788054 0)
(0.674345 0.0792068 0)
(0.655292 0.0848684 0)
(0.635314 0.0968686 0)
(0.614259 0.109856 0)
(0.594164 0.114831 0)
(0.578573 0.109311 0)
(0.568889 0.0980831 0)
(0.559096 0.0879435 0)
(0.548431 0.0833441 0)
(0.536587 0.0848006 0)
(0.522307 0.0859144 0)
(0.506371 0.0855061 0)
(0.48966 0.0852186 0)
(0.471059 0.0867387 0)
(0.452595 0.0931501 0)
(0.433551 0.102594 0)
(0.415395 0.111696 0)
(0.396277 0.114145 0)
(0.378636 0.109256 0)
(0.361116 0.10381 0)
(0.343149 0.102625 0)
(0.325578 0.105344 0)
(0.308346 0.107825 0)
(0.29105 0.109159 0)
(0.273267 0.110334 0)
(0.254974 0.11189 0)
(0.236245 0.113604 0)
(0.217159 0.115094 0)
(0.197963 0.116321 0)
(0.179093 0.117626 0)
(0.160217 0.118825 0)
(0.141135 0.12059 0)
(0.121921 0.122223 0)
(0.102856 0.123967 0)
(0.0839395 0.126593 0)
(0.0650039 0.129755 0)
(0.0462675 0.133761 0)
(0.0274655 0.136878 0)
(0.010256 0.140898 0)
(3 -8.18137e-17 0)
(3 -1.53527e-16 0)
(3 -3.66144e-17 0)
(3 -1.51891e-16 0)
(3 -2.92575e-16 0)
(3 -5.82577e-16 0)
(3 -7.08349e-16 0)
(3 -6.13306e-16 0)
(3 -1.17619e-15 0)
(3 -1.14578e-15 0)
(3 -7.45089e-16 0)
(3 -2.59482e-16 0)
(3 6.57828e-17 0)
(3 9.21965e-17 0)
(3 3.39661e-16 0)
(3 2.59119e-16 0)
(3 -3.65172e-16 0)
(3 -1.33168e-15 0)
(3 -1.50559e-15 0)
(3 -8.89215e-16 0)
(3 -7.03982e-16 0)
(3 -2.42924e-16 0)
(3 3.06983e-16 0)
(3 5.89986e-16 0)
(3 5.10554e-16 0)
(3 5.12702e-16 0)
(3 9.0139e-16 0)
(3 1.40233e-15 0)
(3 2.03472e-15 0)
(3 2.2909e-15 0)
(3 3.06018e-15 0)
(3 3.33086e-15 0)
(3 2.92482e-15 0)
(3 2.22723e-15 0)
(3 1.04998e-15 0)
(3 -2.40815e-16 0)
(3 -6.04026e-16 0)
(3 -4.51724e-16 0)
(3 4.4395e-16 0)
(3 6.96285e-16 0)
(3 1.13104e-16 0)
(3 -1.17615e-16 0)
(3 -5.12602e-16 0)
(3 -9.04968e-16 0)
(3 -7.49112e-16 0)
(3 -6.84791e-16 0)
(3 -1.04726e-15 0)
(3 -3.06532e-15 0)
(3 -3.35771e-15 0)
(3 -3.1287e-15 0)
(3 -2.49776e-15 0)
(3 -3.21721e-15 0)
(1.86863 0.102747 0)
(0.795909 0.109764 0)
(0.724386 0.102281 0)
(0.711304 0.0938001 0)
(0.693289 0.0915112 0)
(0.675595 0.0939111 0)
(0.655213 0.102051 0)
(0.634183 0.116261 0)
(0.612305 0.128441 0)
(0.593314 0.12962 0)
(0.580378 0.121297 0)
(0.572814 0.10872 0)
(0.563959 0.0984697 0)
(0.553223 0.0948166 0)
(0.541075 0.0970456 0)
(0.52642 0.0990617 0)
(0.509987 0.0994026 0)
(0.492686 0.0998847 0)
(0.473344 0.102495 0)
(0.454348 0.109915 0)
(0.43532 0.120222 0)
(0.417485 0.129387 0)
(0.398834 0.131136 0)
(0.381513 0.125548 0)
(0.363858 0.119805 0)
(0.34543 0.118872 0)
(0.327532 0.122292 0)
(0.310209 0.125452 0)
(0.293102 0.127086 0)
(0.275588 0.12829 0)
(0.257422 0.129863 0)
(0.238545 0.131728 0)
(0.219174 0.133495 0)
(0.19967 0.134952 0)
(0.180588 0.136477 0)
(0.161523 0.137858 0)
(0.142138 0.139741 0)
(0.122454 0.141546 0)
(0.102813 0.143375 0)
(0.0834789 0.146117 0)
(0.0643667 0.1493 0)
(0.0457051 0.153405 0)
(0.0271336 0.15658 0)
(0.0102985 0.160834 0)
(3 -6.92809e-17 0)
(3 -1.23338e-16 0)
(3 1.09208e-16 0)
(3 6.04516e-16 0)
(3 8.25619e-16 0)
(3 8.57584e-16 0)
(3 -1.97523e-16 0)
(3 -7.46993e-16 0)
(3 -1.06015e-15 0)
(3 -9.96102e-16 0)
(3 -2.52534e-16 0)
(3 6.81136e-16 0)
(3 1.05001e-15 0)
(3 1.0149e-15 0)
(3 6.70469e-16 0)
(3 -7.53495e-17 0)
(3 -7.81855e-16 0)
(3 -8.96113e-16 0)
(3 3.26914e-17 0)
(3 3.32081e-16 0)
(3 5.04893e-16 0)
(3 2.50451e-16 0)
(3 3.23925e-16 0)
(3 4.38286e-16 0)
(3 5.60139e-16 0)
(3 1.45607e-15 0)
(3 2.05682e-15 0)
(3 1.70493e-15 0)
(3 1.65419e-15 0)
(3 1.75268e-15 0)
(3 1.8216e-15 0)
(3 1.84255e-15 0)
(3 7.45674e-16 0)
(3 1.10536e-17 0)
(3 9.79495e-17 0)
(3 -1.68285e-16 0)
(3 4.66301e-17 0)
(3 9.86294e-17 0)
(3 4.96328e-16 0)
(3 9.8366e-16 0)
(3 1.21872e-15 0)
(3 1.53722e-15 0)
(3 2.19821e-15 0)
(3 8.97762e-16 0)
(3 -1.71561e-16 0)
(3 -1.64764e-17 0)
(3 -6.47382e-16 0)
(3 -2.13249e-15 0)
(3 -2.44262e-15 0)
(3 -2.40677e-15 0)
(3 -2.51913e-15 0)
(3 -2.35107e-15 0)
(1.97573 0.113453 0)
(0.806909 0.126395 0)
(0.726892 0.113368 0)
(0.713939 0.105923 0)
(0.694935 0.104918 0)
(0.675971 0.109823 0)
(0.654152 0.120977 0)
(0.632543 0.136401 0)
(0.611223 0.145138 0)
(0.595231 0.141802 0)
(0.585486 0.131097 0)
(0.578765 0.118116 0)
(0.569776 0.10905 0)
(0.558536 0.107069 0)
(0.545598 0.110319 0)
(0.530357 0.113117 0)
(0.513447 0.113933 0)
(0.495704 0.114912 0)
(0.475758 0.118558 0)
(0.4563 0.126963 0)
(0.437292 0.13807 0)
(0.419608 0.14709 0)
(0.401394 0.14798 0)
(0.384496 0.141661 0)
(0.366879 0.13557 0)
(0.348121 0.13484 0)
(0.329901 0.139017 0)
(0.312397 0.143004 0)
(0.295338 0.145137 0)
(0.278066 0.146447 0)
(0.260144 0.148027 0)
(0.241303 0.149981 0)
(0.221825 0.151972 0)
(0.202088 0.153693 0)
(0.182774 0.15548 0)
(0.163451 0.15708 0)
(0.143715 0.159091 0)
(0.123547 0.161085 0)
(0.103265 0.163021 0)
(0.0833565 0.165905 0)
(0.0639031 0.169123 0)
(0.0451658 0.173309 0)
(0.0267469 0.176464 0)
(0.0103258 0.180872 0)
(3 -2.71618e-17 0)
(3 2.72246e-16 0)
(3 8.58391e-16 0)
(3 1.14151e-15 0)
(3 1.3248e-15 0)
(3 1.0591e-15 0)
(3 2.69405e-16 0)
(3 -6.50294e-17 0)
(3 9.97881e-17 0)
(3 7.36271e-16 0)
(3 8.04573e-16 0)
(3 1.13142e-15 0)
(3 1.84062e-15 0)
(3 1.61889e-15 0)
(3 4.50638e-16 0)
(3 2.12876e-16 0)
(3 5.83338e-16 0)
(3 5.24802e-16 0)
(3 6.38981e-16 0)
(3 5.06081e-16 0)
(3 2.29469e-16 0)
(3 8.54438e-17 0)
(3 9.43014e-16 0)
(3 1.40156e-15 0)
(3 1.80627e-15 0)
(3 1.819e-15 0)
(3 1.69508e-15 0)
(3 1.55649e-15 0)
(3 1.71156e-15 0)
(3 1.64912e-15 0)
(3 6.31112e-16 0)
(3 8.73357e-16 0)
(3 1.7405e-15 0)
(3 2.19889e-15 0)
(3 1.97931e-15 0)
(3 1.29675e-15 0)
(3 2.90767e-16 0)
(3 -1.56072e-16 0)
(3 1.36589e-16 0)
(3 3.36199e-16 0)
(3 7.27666e-16 0)
(3 1.56633e-15 0)
(3 1.85394e-15 0)
(3 1.45607e-15 0)
(3 7.35574e-17 0)
(3 -9.75276e-16 0)
(3 -1.90894e-15 0)
(3 -1.29318e-15 0)
(3 -9.30601e-16 0)
(3 -1.41995e-15 0)
(3 -1.99657e-15 0)
(3 -6.8438e-15 0)
(2.09811 0.125116 0)
(0.821489 0.143952 0)
(0.731215 0.123721 0)
(0.717647 0.118425 0)
(0.696858 0.119443 0)
(0.676138 0.127658 0)
(0.652811 0.141416 0)
(0.631214 0.1556 0)
(0.612517 0.158429 0)
(0.60103 0.150967 0)
(0.593467 0.138799 0)
(0.585971 0.127023 0)
(0.575813 0.120437 0)
(0.563711 0.120606 0)
(0.549611 0.124875 0)
(0.533693 0.128062 0)
(0.51662 0.128906 0)
(0.498647 0.130352 0)
(0.478428 0.134855 0)
(0.458626 0.144214 0)
(0.439529 0.156068 0)
(0.421676 0.164803 0)
(0.40374 0.164778 0)
(0.387353 0.157679 0)
(0.369988 0.15118 0)
(0.351134 0.150563 0)
(0.332713 0.155502 0)
(0.314987 0.160443 0)
(0.297804 0.163262 0)
(0.280657 0.164792 0)
(0.263 0.166411 0)
(0.244331 0.168416 0)
(0.224888 0.170562 0)
(0.205025 0.17256 0)
(0.185475 0.174627 0)
(0.165873 0.176477 0)
(0.145798 0.178632 0)
(0.125202 0.180825 0)
(0.104332 0.182899 0)
(0.0838067 0.185956 0)
(0.0639143 0.189284 0)
(0.0449338 0.193597 0)
(0.0264695 0.196668 0)
(0.0103807 0.201227 0)
(3 -1.79784e-17 0)
(3 9.44872e-18 0)
(3 -7.20874e-17 0)
(3 -4.79532e-17 0)
(3 5.29529e-16 0)
(3 4.58903e-16 0)
(3 1.11919e-16 0)
(3 4.58887e-17 0)
(3 2.22295e-16 0)
(3 6.03965e-16 0)
(3 6.27878e-16 0)
(3 7.46749e-16 0)
(3 5.8132e-16 0)
(3 -1.00234e-16 0)
(3 -2.78801e-16 0)
(3 -8.10975e-17 0)
(3 5.3191e-16 0)
(3 3.6495e-16 0)
(3 2.04237e-16 0)
(3 1.932e-16 0)
(3 3.32881e-16 0)
(3 7.69283e-16 0)
(3 1.28485e-15 0)
(3 1.45247e-15 0)
(3 2.0904e-15 0)
(3 1.61265e-15 0)
(3 1.15043e-15 0)
(3 1.26806e-15 0)
(3 8.49738e-16 0)
(3 3.10857e-16 0)
(3 4.90506e-16 0)
(3 1.43776e-15 0)
(3 2.14046e-15 0)
(3 2.36088e-15 0)
(3 1.97246e-15 0)
(3 1.98595e-15 0)
(3 7.84697e-16 0)
(3 -2.45459e-16 0)
(3 -4.4601e-16 0)
(3 -1.53584e-16 0)
(3 1.99952e-16 0)
(3 5.17315e-16 0)
(3 8.50717e-16 0)
(3 9.42593e-16 0)
(3 6.95196e-16 0)
(3 -2.78885e-16 0)
(3 -7.99583e-16 0)
(3 -3.00852e-16 0)
(3 -8.11059e-16 0)
(3 -1.12493e-15 0)
(3 -1.06693e-15 0)
(3 -1.89391e-15 0)
(2.24837 0.134059 0)
(0.844761 0.160048 0)
(0.737234 0.13359 0)
(0.721472 0.132832 0)
(0.697953 0.136637 0)
(0.674763 0.147587 0)
(0.65137 0.16238 0)
(0.631467 0.171431 0)
(0.618568 0.167485 0)
(0.610259 0.157426 0)
(0.603097 0.145627 0)
(0.593608 0.136576 0)
(0.581753 0.133227 0)
(0.568379 0.135555 0)
(0.552948 0.140424 0)
(0.536551 0.143329 0)
(0.519526 0.144094 0)
(0.501395 0.146044 0)
(0.481181 0.151417 0)
(0.46111 0.161712 0)
(0.441926 0.174242 0)
(0.423768 0.182488 0)
(0.406061 0.18148 0)
(0.390417 0.173532 0)
(0.373599 0.166608 0)
(0.354931 0.166021 0)
(0.336517 0.17161 0)
(0.318554 0.17768 0)
(0.300978 0.181375 0)
(0.28368 0.183303 0)
(0.266138 0.185043 0)
(0.247669 0.18709 0)
(0.228344 0.189319 0)
(0.2085 0.191563 0)
(0.188703 0.193895 0)
(0.16881 0.196024 0)
(0.148385 0.19835 0)
(0.127365 0.200747 0)
(0.105953 0.202999 0)
(0.0848123 0.206269 0)
(0.0644121 0.209808 0)
(0.0450611 0.214355 0)
(0.0263654 0.21741 0)
(0.0104232 0.222066 0)
(3 -3.89366e-17 0)
(3 -2.95413e-17 0)
(3 -1.28372e-16 0)
(3 -3.86001e-16 0)
(3 -6.50101e-16 0)
(3 -4.77917e-16 0)
(3 9.4706e-17 0)
(3 1.51645e-16 0)
(3 2.39904e-16 0)
(3 3.54251e-16 0)
(3 2.64372e-16 0)
(3 1.03732e-16 0)
(3 -1.33392e-16 0)
(3 -9.39903e-16 0)
(3 -1.12048e-15 0)
(3 -1.15357e-15 0)
(3 -1.01216e-15 0)
(3 -4.48725e-16 0)
(3 4.55076e-16 0)
(3 1.21709e-15 0)
(3 1.30455e-15 0)
(3 1.32101e-15 0)
(3 1.18034e-15 0)
(3 1.25144e-15 0)
(3 1.36128e-15 0)
(3 1.356e-15 0)
(3 5.41358e-16 0)
(3 -6.48327e-16 0)
(3 -7.63586e-16 0)
(3 -4.14251e-16 0)
(3 -2.57416e-16 0)
(3 -3.56419e-16 0)
(3 -3.54157e-16 0)
(3 -2.36166e-17 0)
(3 1.57511e-15 0)
(3 1.37012e-15 0)
(3 1.01623e-15 0)
(3 3.07154e-16 0)
(3 -4.70632e-16 0)
(3 -6.83732e-16 0)
(3 -7.00469e-16 0)
(3 -1.13831e-15 0)
(3 -9.54223e-16 0)
(3 -5.26726e-16 0)
(3 -2.2493e-16 0)
(3 -7.5761e-16 0)
(3 -6.7681e-16 0)
(3 -1.11418e-15 0)
(3 -2.2752e-15 0)
(3 -2.30792e-15 0)
(3 -1.76189e-15 0)
(3 -4.19001e-15 0)
(2.42101 0.132647 0)
(0.877157 0.173677 0)
(0.740387 0.145621 0)
(0.722418 0.149445 0)
(0.697564 0.155909 0)
(0.674952 0.168676 0)
(0.654205 0.180976 0)
(0.638244 0.181714 0)
(0.628538 0.1739 0)
(0.621331 0.163337 0)
(0.612519 0.154165 0)
(0.600968 0.148196 0)
(0.587457 0.147773 0)
(0.57257 0.151823 0)
(0.555796 0.156624 0)
(0.539009 0.158776 0)
(0.521982 0.159411 0)
(0.503641 0.161951 0)
(0.483547 0.16833 0)
(0.463298 0.179521 0)
(0.444132 0.192519 0)
(0.42576 0.199968 0)
(0.408361 0.197883 0)
(0.393668 0.189143 0)
(0.37749 0.181981 0)
(0.35902 0.18141 0)
(0.340696 0.187519 0)
(0.32259 0.194959 0)
(0.304293 0.19965 0)
(0.286489 0.202127 0)
(0.26885 0.204069 0)
(0.250604 0.206175 0)
(0.231583 0.208425 0)
(0.211959 0.21084 0)
(0.192038 0.2134 0)
(0.171912 0.215815 0)
(0.151139 0.218337 0)
(0.129694 0.22093 0)
(0.107807 0.223389 0)
(0.0861194 0.226901 0)
(0.065209 0.230715 0)
(0.0454405 0.235586 0)
(0.0264167 0.238698 0)
(0.0104192 0.243553 0)
(3 -1.04231e-16 0)
(3 -2.06918e-16 0)
(3 -5.0653e-16 0)
(3 -7.84478e-16 0)
(3 -8.37553e-16 0)
(3 -6.04306e-16 0)
(3 -1.2661e-16 0)
(3 2.78489e-16 0)
(3 5.61424e-16 0)
(3 5.65891e-16 0)
(3 1.38692e-16 0)
(3 8.2351e-18 0)
(3 5.99841e-16 0)
(3 -7.85352e-17 0)
(3 -2.61217e-16 0)
(3 -4.11509e-16 0)
(3 -9.89044e-17 0)
(3 1.34369e-15 0)
(3 1.529e-15 0)
(3 1.76737e-15 0)
(3 1.78113e-15 0)
(3 1.03242e-15 0)
(3 5.29956e-16 0)
(3 7.37597e-16 0)
(3 8.32006e-16 0)
(3 9.23224e-16 0)
(3 5.52354e-16 0)
(3 6.25767e-16 0)
(3 9.28546e-16 0)
(3 -1.1257e-16 0)
(3 -8.48927e-16 0)
(3 -6.05472e-16 0)
(3 7.01922e-18 0)
(3 7.10674e-16 0)
(3 1.20722e-15 0)
(3 1.23647e-15 0)
(3 3.9513e-16 0)
(3 5.1272e-16 0)
(3 1.47406e-16 0)
(3 -5.8648e-16 0)
(3 -7.64404e-16 0)
(3 -2.244e-15 0)
(3 -2.94459e-15 0)
(3 -2.32285e-15 0)
(3 -1.5668e-15 0)
(3 -9.54189e-16 0)
(3 -4.37012e-16 0)
(3 -1.59508e-15 0)
(3 -2.21023e-15 0)
(3 -2.43394e-15 0)
(3 -2.70515e-15 0)
(3 -4.79969e-15 0)
(2.58975 0.126289 0)
(0.912956 0.191005 0)
(0.742429 0.159387 0)
(0.724928 0.166549 0)
(0.701587 0.175429 0)
(0.681737 0.188068 0)
(0.663463 0.193853 0)
(0.649368 0.189774 0)
(0.640059 0.180569 0)
(0.631834 0.170974 0)
(0.621014 0.164837 0)
(0.607838 0.161922 0)
(0.59279 0.164115 0)
(0.57634 0.169422 0)
(0.558507 0.173302 0)
(0.541568 0.174184 0)
(0.524595 0.174766 0)
(0.506102 0.178027 0)
(0.486225 0.185533 0)
(0.465933 0.197526 0)
(0.446968 0.21066 0)
(0.428557 0.216955 0)
(0.411675 0.213739 0)
(0.39759 0.204526 0)
(0.381909 0.197355 0)
(0.363906 0.196873 0)
(0.345786 0.203465 0)
(0.327803 0.212279 0)
(0.308899 0.217952 0)
(0.290524 0.221018 0)
(0.272661 0.22323 0)
(0.254587 0.225472 0)
(0.235896 0.227751 0)
(0.216489 0.230296 0)
(0.196481 0.233108 0)
(0.175983 0.235835 0)
(0.1547 0.238637 0)
(0.132674 0.241445 0)
(0.110264 0.244137 0)
(0.0880523 0.247927 0)
(0.0666026 0.252052 0)
(0.0463385 0.2573 0)
(0.0268428 0.260513 0)
(0.0104351 0.265592 0)
(3 2.34113e-17 0)
(3 1.19329e-16 0)
(3 -3.80995e-16 0)
(3 -4.46582e-16 0)
(3 -7.01365e-16 0)
(3 -8.85269e-16 0)
(3 -7.37236e-16 0)
(3 -6.87402e-16 0)
(3 -4.46559e-16 0)
(3 -6.54039e-16 0)
(3 -9.91678e-16 0)
(3 -9.52109e-16 0)
(3 -1.32332e-15 0)
(3 -9.42737e-16 0)
(3 -5.02967e-16 0)
(3 -2.90822e-16 0)
(3 -4.07934e-16 0)
(3 8.73071e-16 0)
(3 1.00785e-15 0)
(3 8.74611e-16 0)
(3 6.88866e-16 0)
(3 7.15457e-16 0)
(3 9.21363e-16 0)
(3 4.84673e-16 0)
(3 2.10264e-16 0)
(3 2.69802e-16 0)
(3 9.89313e-16 0)
(3 1.21603e-15 0)
(3 1.09054e-15 0)
(3 5.73243e-16 0)
(3 -6.01253e-16 0)
(3 -5.13096e-16 0)
(3 9.36334e-16 0)
(3 1.43436e-15 0)
(3 1.20443e-15 0)
(3 7.22339e-16 0)
(3 3.52975e-16 0)
(3 3.34639e-16 0)
(3 -3.5422e-16 0)
(3 -1.06625e-15 0)
(3 -1.84214e-15 0)
(3 -2.34295e-15 0)
(3 -1.87506e-15 0)
(3 -1.28651e-15 0)
(3 -6.81002e-16 0)
(3 -3.67511e-16 0)
(3 -5.72038e-16 0)
(3 -1.01411e-15 0)
(3 -1.02279e-15 0)
(3 -1.64354e-15 0)
(3 -2.14916e-15 0)
(3 -2.57398e-15 0)
(2.75121 0.113377 0)
(0.957898 0.205368 0)
(0.746784 0.171589 0)
(0.731145 0.181899 0)
(0.71037 0.19186 0)
(0.692391 0.202678 0)
(0.674898 0.204741 0)
(0.661459 0.198064 0)
(0.651123 0.188066 0)
(0.640274 0.180411 0)
(0.627508 0.17748 0)
(0.612917 0.177945 0)
(0.596762 0.182251 0)
(0.579542 0.187866 0)
(0.561777 0.189822 0)
(0.545268 0.189084 0)
(0.528563 0.189756 0)
(0.50997 0.193997 0)
(0.490243 0.202885 0)
(0.469777 0.215696 0)
(0.450785 0.228586 0)
(0.432311 0.233391 0)
(0.415988 0.22912 0)
(0.402327 0.219703 0)
(0.387113 0.212666 0)
(0.36983 0.21242 0)
(0.352173 0.219484 0)
(0.334288 0.229456 0)
(0.314826 0.236192 0)
(0.295612 0.23991 0)
(0.277082 0.242574 0)
(0.258759 0.245179 0)
(0.240111 0.247655 0)
(0.220771 0.250375 0)
(0.20064 0.253462 0)
(0.179745 0.256448 0)
(0.157928 0.259541 0)
(0.135356 0.262526 0)
(0.112556 0.265396 0)
(0.0900468 0.269465 0)
(0.0682288 0.273899 0)
(0.0475542 0.279528 0)
(0.0275663 0.282845 0)
(0.0104556 0.28812 0)
(3 2.84861e-17 0)
(3 3.07513e-16 0)
(3 6.8136e-16 0)
(3 4.60557e-16 0)
(3 -2.42191e-16 0)
(3 -3.76892e-16 0)
(3 -3.19327e-16 0)
(3 -9.51859e-16 0)
(3 -1.53951e-15 0)
(3 -1.72187e-15 0)
(3 -1.54453e-15 0)
(3 -1.78036e-15 0)
(3 -2.45938e-15 0)
(3 -1.87236e-15 0)
(3 -1.475e-15 0)
(3 -3.32042e-16 0)
(3 -2.14688e-16 0)
(3 8.63654e-17 0)
(3 4.6685e-17 0)
(3 6.50656e-16 0)
(3 5.42806e-16 0)
(3 7.53593e-16 0)
(3 1.32554e-15 0)
(3 1.19888e-15 0)
(3 1.01593e-15 0)
(3 9.33245e-16 0)
(3 1.11383e-15 0)
(3 4.39882e-16 0)
(3 -4.87917e-16 0)
(3 -9.27362e-16 0)
(3 -5.35509e-16 0)
(3 -2.13375e-16 0)
(3 -8.77264e-17 0)
(3 -2.2591e-16 0)
(3 -5.9352e-16 0)
(3 -8.91404e-16 0)
(3 -5.68077e-16 0)
(3 -2.31102e-16 0)
(3 -4.01129e-16 0)
(3 -6.8501e-16 0)
(3 -5.57389e-16 0)
(3 5.90132e-17 0)
(3 7.45044e-16 0)
(3 6.99247e-16 0)
(3 4.60109e-16 0)
(3 -8.20566e-16 0)
(3 -1.61258e-15 0)
(3 -1.584e-15 0)
(3 -1.05968e-15 0)
(3 -1.36932e-15 0)
(3 -1.52469e-15 0)
(3 -1.52119e-15 0)
(2.88855 0.0871958 0)
(1.00642 0.220716 0)
(0.751696 0.182452 0)
(0.73856 0.195148 0)
(0.71846 0.208154 0)
(0.699855 0.218027 0)
(0.683326 0.216639 0)
(0.670783 0.20786 0)
(0.658713 0.198289 0)
(0.645017 0.192484 0)
(0.629978 0.192092 0)
(0.614149 0.195303 0)
(0.597493 0.201051 0)
(0.580488 0.206114 0)
(0.563636 0.205689 0)
(0.547469 0.203693 0)
(0.530637 0.204915 0)
(0.511603 0.210418 0)
(0.491882 0.220759 0)
(0.471697 0.234126 0)
(0.453543 0.246088 0)
(0.436127 0.249034 0)
(0.421182 0.243779 0)
(0.407997 0.234532 0)
(0.393025 0.227989 0)
(0.376204 0.228315 0)
(0.358871 0.236022 0)
(0.340861 0.247018 0)
(0.320908 0.254831 0)
(0.30082 0.259123 0)
(0.281534 0.262259 0)
(0.262873 0.265319 0)
(0.244287 0.268107 0)
(0.225137 0.271029 0)
(0.205121 0.274366 0)
(0.184019 0.277527 0)
(0.161787 0.280886 0)
(0.138766 0.284058 0)
(0.115652 0.287089 0)
(0.0929416 0.291483 0)
(0.0707902 0.296269 0)
(0.0496185 0.302298 0)
(0.0289174 0.305708 0)
(0.0106278 0.311128 0)
(3 -1.44722e-16 0)
(3 -1.70628e-16 0)
(3 -6.23076e-17 0)
(3 8.6314e-17 0)
(3 4.30037e-16 0)
(3 8.5835e-16 0)
(3 1.0616e-15 0)
(3 7.65449e-16 0)
(3 1.834e-18 0)
(3 -2.06544e-16 0)
(3 -3.88602e-17 0)
(3 -3.10691e-16 0)