/*--------------------------------*- C++ -*----------------------------------*\
  =========                 |
  \\      /  F ield         | OpenFOAM: The Open Source CFD Toolbox
   \\    /   O peration     | Website:  https://openfoam.org
    \\  /    A nd           | Version:  7
     \\/     M anipulation  |
\*---------------------------------------------------------------------------*/
FoamFile
{
    version     2.0;
    format      ascii;
    class       volScalarField;
    location    "1.3";
    object      p;
}
// * * * * * * * * * * * * * * * * * * * * * * * * * * * * * * * * * * * * * //

dimensions      [1 -1 -2 0 0 0 0];

internalField   nonuniform List<scalar> 
258048
(
1
1
1
1
1
1
1
1
1
1
1
1
1
1
1
1
1
1
1
1
1
1
1
1
1
1
1
1
1
1
1
1
1
1
1
1
1
1
1
1
1
1
1
1
1
1
1
1
1
1
1
1
1
1
1
1
1
1
1
1
1
1
1
1
1
1
1
1
1
1
1
1
1
1
1
1
1
1
1
1
1
1
1
1
1
1
1
1
1
1
1
1
1
1
1
1
1
1
1
1
1
1
1
1
1.26868
7.44957
10.5048
10.5512
10.6177
10.6988
10.7682
10.8208
10.8384
10.8382
10.8331
10.8346
10.845
10.8765
10.9253
10.9815
11.0342
11.0781
11.1119
11.1395
11.1656
11.1925
11.2179
11.2422
11.2647
11.2855
11.3027
11.3239
11.3494
11.3764
11.4033
11.4245
11.4418
11.458
11.4721
11.4851
11.4996
11.52
11.5458
11.5751
11.605
11.6326
11.6581
11.6768
11.6954
11.7182
11.7454
11.7738
11.8002
11.8213
11.8364
11.8467
11.856
11.8689
11.8902
11.9182
11.9439
11.9579
11.9527
11.9317
11.9091
11.8958
11.8983
11.9175
11.9397
11.9551
11.9633
11.9691
11.9816
12.0084
12.0495
12.0964
12.1388
12.1641
12.167
12.1535
12.1305
12.1118
12.1094
12.1253
12.1535
12.1824
12.2013
12.2054
12.1964
12.181
12.1654
12.1572
1
1
1
1
1
1
1
1
1
1
1
1
1
1
1
1
1
1
1
1
1
1
1
1
1
1
1
1
1
1
1
1
1
1
1
1
1
1
1
1
1
1
1
1
1
1
1
1
1
1
1
1
1
1
1
1
1
1
1
1
1
1
1
1
1
1
1
1
1
1
1
1
1
1
1
1
1
1
1
1
1
1
1
1
1
1
1
1
1
1
1
1
1
1
1
1
1
1
1
1
1
1
1
1
1.25954
7.41476
10.4939
10.5562
10.6271
10.7105
10.7772
10.8229
10.8377
10.8362
10.834
10.8343
10.8451
10.8764
10.9254
10.9815
11.0339
11.0775
11.1111
11.1385
11.1647
11.192
11.2178
11.2418
11.2642
11.2848
11.3023
11.3243
11.3505
11.3781
11.4053
11.4265
11.4437
11.4595
11.473
11.4854
11.4992
11.5194
11.5449
11.574
11.6037
11.6312
11.6568
11.6757
11.6941
11.7167
11.7436
11.7719
11.7981
11.8194
11.8349
11.8463
11.8569
11.871
11.8922
11.9186
11.9424
11.955
11.9506
11.9326
11.9126
11.9004
11.9015
11.9171
11.9367
11.952
11.9625
11.9721
11.9877
12.0141
12.051
12.0923
12.1302
12.1542
12.1591
12.1493
12.131
12.1159
12.1141
12.1284
12.154
12.1805
12.1985
12.2034
12.1958
12.181
12.1652
12.1555
1
1
1
1
1
1
1
1
1
1
1
1
1
1
1
1
1
1
1
1
1
1
1
1
1
1
1
1
1
1
1
1
1
1
1
1
1
1
1
1
1
1
1
1
1
1
1
1
1
1
1
1
1
1
1
1
1
1
1
1
1
1
1
1
1
1
1
1
1
1
1
1
1
1
1
1
1
1
1
1
1
1
1
1
1
1
1
1
1
1
1
1
1
1
1
1
1
1
1
1
1
1
1
1
1.24042
7.34758
10.4839
10.5638
10.6399
10.7257
10.7875
10.8233
10.8349
10.8335
10.8308
10.8315
10.8437
10.8755
10.9246
10.9805
11.0327
11.0761
11.1093
11.1365
11.163
11.1907
11.217
11.2408
11.2627
11.283
11.3009
11.3239
11.3512
11.3799
11.4076
11.4289
11.4462
11.4615
11.4744
11.4862
11.4995
11.5192
11.5441
11.5725
11.6017
11.6291
11.6553
11.6746
11.6926
11.7145
11.7406
11.7684
11.7945
11.8164
11.833
11.8461
11.8583
11.8734
11.8937
11.9179
11.9394
11.9509
11.948
11.9339
11.9169
11.9055
11.9042
11.9151
11.932
11.9476
11.9615
11.9764
11.9961
12.0226
12.0549
12.0892
12.1198
12.1401
12.1461
12.141
12.1302
12.1221
12.1231
12.1355
12.1563
12.1778
12.1929
12.1979
12.1925
12.1799
12.1657
12.1553
1
1
1
1
1
1
1
1
1
1
1
1
1
1
1
1
1
1
1
1
1
1
1
1
1
1
1
1
1
1
1
1
1
1
1
1
1
1
1
1
1
1
1
1
1
1
1
1
1
1
1
1
1
1
1
1
1
1
1
1
1
1
1
1
1
1
1
1
1
1
1
1
1
1
1
1
1
1
1
1
1
1
1
1
1
1
1
1
1
1
1
1
1
1
1
1
1
1
1
1
1
1
1
1
1.21055
7.23914
10.4755
10.5796
10.6634
10.7409
10.7919
10.8214
10.8318
10.8304
10.8285
10.8298
10.8426
10.8749
10.9237
10.9792
11.0309
11.074
11.107
11.1342
11.161
11.1892
11.216
11.2391
11.2602
11.2801
11.2987
11.323
11.3516
11.3814
11.4095
11.4306
11.4478
11.4626
11.4751
11.4865
11.4994
11.5189
11.5429
11.5704
11.5988
11.626
11.653
11.6731
11.6909
11.7117
11.7365
11.7633
11.7894
11.8122
11.8308
11.8463
11.8607
11.8766
11.8956
11.9165
11.9348
11.945
11.944
11.9344
11.9216
11.9112
11.9075
11.9129
11.9265
11.9426
11.9606
11.9813
12.0051
12.0314
12.0591
12.0861
12.1084
12.1236
12.1302
12.1303
12.1284
12.1283
12.1329
12.1439
12.1594
12.1748
12.1863
12.1909
12.1876
12.1777
12.166
12.1552
1
1
1
1
1
1
1
1
1
1
1
1
1
1
1
1
1
1
1
1
1
1
1
1
1
1
1
1
1
1
1
1
1
1
1
1
1
1
1
1
1
1
1
1
1
1
1
1
1
1
1
1
1
1
1
1
1
1
1
1
1
1
1
1
1
1
1
1
1
1
1
1
1
1
1
1
1
1
1
1
1
1
1
1
1
1
1
1
1
1
1
1
1
1
1
1
1
1
1
1
1
1
1
1
1.16651
7.0979
10.5069
10.6076
10.6866
10.7495
10.792
10.8194
10.8296
10.8287
10.8266
10.8276
10.8405
10.8731
10.9215
10.9766
11.028
11.0709
11.1041
11.1316
11.1587
11.1875
11.2144
11.2366
11.2568
11.2765
11.2957
11.3212
11.3508
11.3817
11.4101
11.4309
11.4476
11.4619
11.4744
11.4861
11.4993
11.5187
11.5417
11.5678
11.5953
11.6224
11.6504
11.6717
11.6899
11.7095
11.7322
11.7574
11.7831
11.8072
11.8284
11.8469
11.8636
11.88
11.8971
11.914
11.9286
11.9375
11.939
11.9342
11.9253
11.9157
11.9097
11.9105
11.9202
11.9373
11.9597
11.9854
12.0124
12.0388
12.0631
12.0834
12.0986
12.1081
12.1137
12.1182
12.1241
12.1319
12.1412
12.1521
12.1632
12.1726
12.1795
12.1828
12.181
12.1742
12.166
12.1561
1
1
1
1
1
1
1
1
1
1
1
1
1
1
1
1
1
1
1
1
1
1
1
1
1
1
1
1
1
1
1
1
1
1
1
1
1
1
1
1
1
1
1
1
1
1
1
1
1
1
1
1
1
1
1
1
1
1
1
1
1
1
1
1
1
1
1
1
1
1
1
1
1
1
1
1
1
1
1
1
1
1
1
1
1
1
1
1
1
1
1
1
1
1
1
1
1
1
1
1
1
1
1
1
1.09572
6.96365
10.5727
10.6337
10.6951
10.7505
10.7902
10.8172
10.8271
10.8263
10.8239
10.8249
10.8382
10.8712
10.9194
10.9741
11.0253
11.068
11.1012
11.1291
11.1566
11.1855
11.2121
11.2331
11.2527
11.2725
11.2926
11.319
11.3493
11.3807
11.409
11.429
11.4449
11.4588
11.4716
11.4842
11.4985
11.518
11.54
11.5643
11.5906
11.6176
11.6469
11.6702
11.6893
11.7081
11.7287
11.7515
11.7764
11.8018
11.826
11.8475
11.8659
11.8819
11.8963
11.9096
11.9208
11.9288
11.9333
11.9332
11.928
11.9191
11.9106
11.9083
11.9144
11.9314
11.9581
11.9874
12.0163
12.0427
12.0654
12.0824
12.0925
12.0971
12.1004
12.1064
12.1171
12.1306
12.1447
12.1574
12.1667
12.1714
12.1735
12.1741
12.173
12.1692
12.1655
12.1578
1
1
1
1
1
1
1
1
1
1
1
1
1
1
1
1
1
1
1
1
1
1
1
1
1
1
1
1
1
1
1
1
1
1
1
1
1
1
1
1
1
1
1
1
1
1
1
1
1
1
1
1
1
1
1
1
1
1
1
1
1
1
1
1
1
1
1
1
1
1
1
1
1
1
1
1
1
1
1
1
1
1
1
1
1
1
1
1
1
1
1
1
1
1
1
1
1
1
1
1
1
1
1
1
1.03099
6.83416
10.6021
10.6464
10.6964
10.7485
10.7872
10.8142
10.8246
10.8243
10.8219
10.8229
10.8362
10.8694
10.9174
10.972
11.0229
11.065
11.0978
11.1258
11.1537
11.1827
11.2086
11.2285
11.248
11.2685
11.29
11.3173
11.3482
11.3795
11.4068
11.4254
11.4402
11.4536
11.4668
11.4807
11.4963
11.516
11.5371
11.5591
11.5841
11.6114
11.6423
11.6683
11.6893
11.7079
11.7266
11.7472
11.7708
11.7969
11.8236
11.8475
11.8667
11.8813
11.8926
11.9025
11.9115
11.9199
11.9278
11.9319
11.93
11.9217
11.9107
11.9051
11.9087
11.9253
11.9542
11.9856
12.0157
12.043
12.0664
12.083
12.0902
12.0925
12.0929
12.0972
12.1083
12.1247
12.1425
12.1585
12.1685
12.1708
12.1686
12.1658
12.1643
12.163
12.1639
12.1597
1
1
1
1
1
1
1
1
1
1
1
1
1
1
1
1
1
1
1
1
1
1
1
1
1
1
1
1
1
1
1
1
1
1
1
1
1
1
1
1
1
1
1
1
1
1
1
1
1
1
1
1
1
1
1
1
1
1
1
1
1
1
1
1
1
1
1
1
1
1
1
1
1
1
1
1
1
1
1
1
1
1
1
1
1
1
1
1
1
1
1
1
1
1
1
1
1
1
1
1
1
1
1
1
1.00057
6.67367
10.5943
10.6488
10.6943
10.7454
10.7839
10.8117
10.8227
10.8226
10.8197
10.8204
10.8336
10.8666
10.9145
10.9693
11.0205
11.0623
11.0948
11.1226
11.1506
11.1792
11.204
11.223
11.2429
11.2647
11.2881
11.3164
11.3476
11.3785
11.4043
11.4212
11.4347
11.4471
11.4605
11.4757
11.4927
11.5125
11.5326
11.5521
11.5758
11.6035
11.6361
11.6656
11.6896
11.7089
11.7261
11.7448
11.767
11.7931
11.8212
11.8464
11.8654
11.8779
11.8858
11.8927
11.9009
11.9115
11.9231
11.9312
11.9317
11.9228
11.9091
11.9003
11.9025
11.9183
11.9476
11.9799
12.0109
12.0401
12.0657
12.0833
12.0908
12.0925
12.0906
12.0911
12.099
12.1151
12.1357
12.1553
12.1674
12.1697
12.1649
12.1588
12.1561
12.1566
12.1614
12.161
1
1
1
1
1
1
1
1
1
1
1
1
1
1
1
1
1
1
1
1
1
1
1
1
1
1
1
1
1
1
1
1
1
1
1
1
1
1
1
1
1
1
1
1
1
1
1
1
1
1
1
1
1
1
1
1
1
1
1
1
1
1
1
1
1
1
1
1
1
1
1
1
1
1
1
1
1
1
1
1
1
1
1
1
1
1
1
1
1
1
1
1
1
1
1
1
1
1
1
1
1
1
1
1
1
6.48238
10.5758
10.6473
10.6907
10.7424
10.7813
10.8095
10.8203
10.8202
10.8172
10.8175
10.8304
10.8631
10.911
10.966
11.0177
11.0598
11.0922
11.1197
11.1471
11.1745
11.1978
11.2165
11.2373
11.261
11.2868
11.3164
11.3478
11.3779
11.402
11.417
11.4293
11.4407
11.4537
11.4698
11.488
11.5076
11.5267
11.5436
11.5661
11.594
11.6284
11.6615
11.6888
11.7097
11.7266
11.7441
11.7652
11.7909
11.8194
11.8444
11.8621
11.8717
11.8761
11.8807
11.8895
11.9039
11.92
11.9317
11.9333
11.9226
11.9066
11.8955
11.8958
11.9108
11.9393
11.9715
12.0038
12.0349
12.0637
12.0839
12.0931
12.0955
12.092
12.0881
12.0911
12.1043
12.1256
12.1477
12.1627
12.1668
12.1615
12.1534
12.1493
12.1507
12.1578
12.1608
1
1
1
1
1
1
1
1
1
1
1
1
1
1
1
1
1
1
1
1
1
1
1
1
1
1
1
1
1
1
1
1
1
1
1
1
1
1
1
1
1
1
1
1
1
1
1
1
1
1
1
1
1
1
1
1
1
1
1
1
1
1
1
1
1
1
1
1
1
1
1
1
1
1
1
1
1
1
1
1
1
1
1
1
1
1
1
1
1
1
1
1
1
1
1
1
1
1
1
1
1
1
1
1
1
6.27218
10.5495
10.6435
10.687
10.7391
10.778
10.8058
10.8164
10.8169
10.8147
10.8151
10.8273
10.8592
10.9064
10.9611
11.0134
11.0564
11.0898
11.117
11.1431
11.1688
11.1907
11.2095
11.2315
11.2573
11.2859
11.3167
11.348
11.3773
11.3994
11.413
11.4245
11.4353
11.4477
11.4638
11.4829
11.5017
11.5198
11.5349
11.556
11.5841
11.6198
11.6556
11.6861
11.7093
11.7269
11.744
11.7646
11.79
11.818
11.8414
11.8566
11.863
11.8646
11.8681
11.8786
11.8972
11.9178
11.9319
11.9335
11.9218
11.9046
11.8919
11.8901
11.9037
11.9307
11.9624
11.9952
12.0273
12.0587
12.0821
12.0943
12.0985
12.0947
12.0877
12.086
12.0951
12.1144
12.1369
12.1539
12.1605
12.1571
12.1492
12.1445
12.1459
12.1533
12.1588
1
1
1
1
1
1
1
1
1
1
1
1
1
1
1
1
1
1
1
1
1
1
1
1
1
1
1
1
1
1
1
1
1
1
1
1
1
1
1
1
1
1
1
1
1
1
1
1
1
1
1
1
1
1
1
1
1
1
1
1
1
1
1
1
1
1
1
1
1
1
1
1
1
1
1
1
1
1
1
1
1
1
1
1
1
1
1
1
1
1
1
1
1
1
1
1
1
1
1
1
1
1
1
1
1
6.04454
10.5204
10.6387
10.6821
10.7345
10.7735
10.801
10.812
10.8135
10.8127
10.8129
10.824
10.8547
10.9007
10.9545
11.0076
11.052
11.0869
11.1141
11.1388
11.1625
11.1835
11.2026
11.226
11.2537
11.2847
11.3164
11.347
11.3756
11.3961
11.4089
11.4206
11.4314
11.443
11.4584
11.4773
11.4957
11.5127
11.5267
11.5468
11.5756
11.6118
11.6483
11.6809
11.7064
11.7255
11.7434
11.7644
11.7898
11.8167
11.8375
11.8495
11.8531
11.8533
11.8573
11.8698
11.8913
11.9149
11.93
11.9308
11.9192
11.9023
11.8892
11.8869
11.8991
11.9235
11.9535
11.9857
12.0181
12.0502
12.076
12.0916
12.0985
12.0963
12.0886
12.0839
12.0889
12.1045
12.1244
12.1412
12.1505
12.1506
12.1453
12.1415
12.1426
12.1483
12.1551
1
1
1
1
1
1
1
1
1
1
1
1
1
1
1
1
1
1
1
1
1
1
1
1
1
1
1
1
1
1
1
1
1
1
1
1
1
1
1
1
1
1
1
1
1
1
1
1
1
1
1
1
1
1
1
1
1
1
1
1
1
1
1
1
1
1
1
1
1
1
1
1
1
1
1
1
1
1
1
1
1
1
1
1
1
1
1
1
1
1
1
1
1
1
1
1
1
1
1
1
1
1
1
1
1
5.79915
10.4891
10.6323
10.6758
10.7287
10.7678
10.7952
10.8071
10.8102
10.8106
10.8101
10.8202
10.8493
10.8938
10.9471
11.0015
11.0467
11.083
11.1103
11.1341
11.1563
11.1768
11.1969
11.2217
11.2505
11.2826
11.3143
11.3439
11.3718
11.3914
11.4046
11.4171
11.4284
11.4392
11.4533
11.4712
11.4893
11.5056
11.5197
11.5398
11.57
11.6056
11.6408
11.6727
11.6995
11.7206
11.7406
11.7632
11.7891
11.8148
11.8328
11.8418
11.8436
11.8436
11.8493
11.8641
11.8866
11.9106
11.925
11.9244
11.9134
11.8988
11.8873
11.886
11.8977
11.9191
11.9463
11.9771
12.0089
12.0399
12.0662
12.0839
12.0935
12.0946
12.0893
12.0845
12.0864
12.0969
12.1116
12.126
12.1371
12.1414
12.1406
12.1392
12.1402
12.1431
12.1498
1
1
1
1
1
1
1
1
1
1
1
1
1
1
1
1
1
1
1
1
1
1
1
1
1
1
1
1
1
1
1
1
1
1
1
1
1
1
1
1
1
1
1
1
1
1
1
1
1
1
1
1
1
1
1
1
1
1
1
1
1
1
1
1
1
1
1
1
1
1
1
1
1
1
1
1
1
1
1
1
1
1
1
1
1
1
1
1
1
1
1
1
1
1
1
1
1
1
1
1
1
1
1
1
1
5.53513
10.4556
10.6232
10.6664
10.7206
10.7608
10.7894
10.8031
10.8084
10.8088
10.8065
10.8153
10.8421
10.8859
10.9403
10.9961
11.0408
11.0772
11.1047
11.1287
11.1507
11.1718
11.1935
11.2191
11.2477
11.2791
11.31
11.3381
11.3656
11.3851
11.3994
11.413
11.425
11.4354
11.4479
11.4643
11.4819
11.4983
11.514
11.5353
11.5673
11.6018
11.6343
11.6634
11.6896
11.7122
11.7349
11.76
11.787
11.8116
11.8272
11.8338
11.8347
11.8358
11.8441
11.8614
11.8838
11.9048
11.9161
11.9138
11.9039
11.8933
11.8859
11.8872
11.8995
11.9176
11.942
11.9707
12.0005
12.0284
12.0526
12.0703
12.0823
12.0884
12.0887
12.0872
12.0875
12.092
12.0998
12.1102
12.1212
12.1295
12.1342
12.1364
12.138
12.1381
12.1437
1
1
1
1
1
1
1
1
1
1
1
1
1
1
1
1
1
1
1
1
1
1
1
1
1
1
1
1
1
1
1
1
1
1
1
1
1
1
1
1
1
1
1
1
1
1
1
1
1
1
1
1
1
1
1
1
1
1
1
1
1
1
1
1
1
1
1
1
1
1
1
1
1
1
1
1
1
1
1
1
1
1
1
1
1
1
1
1
1
1
1
1
1
1
1
1
1
1
1
1
1
1
1
1
1
5.25129
10.4191
10.6114
10.6541
10.7103
10.7527
10.7841
10.8007
10.8077
10.8071
10.8018
10.8085
10.8333
10.8779
10.9352
10.9911
11.0348
11.0693
11.0964
11.122
11.1452
11.1684
11.1924
11.2185
11.2455
11.2746
11.3042
11.3305
11.3574
11.3777
11.3936
11.4082
11.4204
11.4305
11.4412
11.4558
11.4728
11.4899
11.5084
11.5324
11.5665
11.5997
11.6289
11.6544
11.6787
11.7017
11.7267
11.7543
11.7827
11.8064
11.8202
11.8255
11.8264
11.8293
11.8405
11.8604
11.8823
11.8987
11.905
11.9001
11.8913
11.8854
11.8842
11.89
11.9028
11.9186
11.9403
11.9661
11.993
12.0171
12.0371
12.0526
12.0658
12.0771
12.0851
12.0891
12.0901
12.0894
12.0901
12.0953
12.1048
12.1158
12.1256
12.1319
12.135
12.1332
12.1371
1
1
1
1
1
1
1
1
1
1
1
1
1
1
1
1
1
1
1
1
1
1
1
1
1
1
1
1
1
1
1
1
1
1
1
1
1
1
1
1
1
1
1
1
1
1
1
1
1
1
1
1
1
1
1
1
1
1
1
1
1
1
1
1
1
1
1
1
1
1
1
1
1
1
1
1
1
1
1
1
1
1
1
1
1
1
1
1
1
1
1
1
1
1
1
1
1
1
1
1
1
1
1
1
1
4.94711
10.3782
10.5981
10.6415
10.6992
10.7447
10.7796
10.7989
10.8064
10.8035
10.796
10.8009
10.8243
10.8703
10.9306
10.9854
11.0279
11.0592
11.0857
11.1125
11.1385
11.1651
11.192
11.2188
11.244
11.2695
11.2973
11.3221
11.3484
11.3703
11.3877
11.4029
11.4146
11.4241
11.4329
11.4458
11.4617
11.48
11.5016
11.5296
11.5657
11.598
11.6243
11.6462
11.6683
11.691
11.7173
11.7468
11.7762
11.7991
11.8118
11.8164
11.818
11.8229
11.8368
11.8591
11.8804
11.8929
11.8941
11.8856
11.8772
11.8754
11.8801
11.8915
11.906
11.9209
11.9401
11.9632
11.9869
12.0068
12.0217
12.0339
12.0467
12.0615
12.0766
12.0875
12.0912
12.088
12.0831
12.0828
12.0896
12.1017
12.1152
12.1252
12.1304
12.1282
12.1305
1
1
1
1
1
1
1
1
1
1
1
1
1
1
1
1
1
1
1
1
1
1
1
1
1
1
1
1
1
1
1
1
1
1
1
1
1
1
1
1
1
1
1
1
1
1
1
1
1
1
1
1
1
1
1
1
1
1
1
1
1
1
1
1
1
1
1
1
1
1
1
1
1
1
1
1
1
1
1
1
1
1
1
1
1
1
1
1
1
1
1
1
1
1
1
1
1
1
1
1
1
1
1
1
1
4.62461
10.3214
10.5864
10.6307
10.6885
10.7369
10.7744
10.7961
10.8039
10.7991
10.7913
10.7944
10.8164
10.8639
10.9252
10.9791
11.0201
11.0487
11.0744
11.1007
11.1303
11.1605
11.1905
11.2183
11.2425
11.2644
11.2902
11.3143
11.3407
11.3644
11.3822
11.3976
11.4083
11.4165
11.4236
11.4349
11.4493
11.4686
11.4928
11.525
11.5626
11.5947
11.6191
11.6386
11.659
11.6815
11.7084
11.7386
11.7682
11.7903
11.8024
11.8069
11.8093
11.8156
11.8313
11.8556
11.8769
11.8871
11.885
11.8737
11.864
11.8639
11.8722
11.8887
11.9066
11.9222
11.9406
11.962
11.9826
11.998
12.0087
12.017
12.0277
12.0435
12.0632
12.08
12.0875
12.0852
12.0778
12.0735
12.0773
12.0888
12.1038
12.1162
12.1234
12.1224
12.1234
1
1
1
1
1
1
1
1
1
1
1
1
1
1
1
1
1
1
1
1
1
1
1
1
1
1
1
1
1
1
1
1
1
1
1
1
1
1
1
1
1
1
1
1
1
1
1
1
1
1
1
1
1
1
1
1
1
1
1
1
1
1
1
1
1
1
1
1
1
1
1
1
1
1
1
1
1
1
1
1
1
1
1
1
1
1
1
1
1
1
1
1
1
1
1
1
1
1
1
1
1
1
1
1
1
4.2942
10.2371
10.5807
10.6244
10.681
10.7301
10.7687
10.7911
10.7992
10.7949
10.7887
10.7907
10.8114
10.8578
10.9183
10.9731
11.0131
11.041
11.0647
11.0898
11.122
11.1547
11.1866
11.2153
11.2393
11.2591
11.2833
11.3078
11.3352
11.3598
11.3774
11.3924
11.402
11.4085
11.4147
11.4247
11.4376
11.4568
11.4826
11.5174
11.5558
11.5881
11.612
11.6308
11.6508
11.6734
11.7005
11.7305
11.7594
11.7807
11.7927
11.7974
11.8003
11.807
11.8233
11.8485
11.8705
11.8808
11.8784
11.8661
11.854
11.8518
11.8597
11.879
11.9014
11.9204
11.9406
11.9619
11.9799
11.9916
11.9988
12.003
12.0109
12.0256
12.0463
12.0661
12.0777
12.0787
12.0725
12.0672
12.0688
12.0785
12.0926
12.1054
12.1139
12.1151
12.1152
1
1
1
1
1
1
1
1
1
1
1
1
1
1
1
1
1
1
1
1
1
1
1
1
1
1
1
1
1
1
1
1
1
1
1
1
1
1
1
1
1
1
1
1
1
1
1
1
1
1
1
1
1
1
1
1
1
1
1
1
1
1
1
1
1
1
1
1
1
1
1
1
1
1
1
1
1
1
1
1
1
1
1
1
1
1
1
1
1
1
1
1
1
1
1
1
1
1
1
1
1
1
1
1
1
3.96481
10.1192
10.5766
10.617
10.6732
10.722
10.7604
10.7836
10.7936
10.7907
10.7868
10.7885
10.8087
10.8502
10.9082
10.9658
11.0075
11.0359
11.0581
11.0826
11.1153
11.1486
11.1806
11.209
11.2332
11.2529
11.2765
11.3028
11.3317
11.3561
11.3729
11.387
11.3956
11.4012
11.4075
11.4169
11.4284
11.4467
11.4721
11.5071
11.5448
11.5771
11.6018
11.6218
11.6427
11.6662
11.6933
11.7227
11.7504
11.7709
11.7833
11.7886
11.7916
11.7976
11.8129
11.8375
11.8609
11.8736
11.8739
11.8625
11.8477
11.8404
11.8437
11.8618
11.8885
11.9136
11.9388
11.9622
11.9793
11.9876
11.9918
11.9927
11.9973
12.0091
12.0274
12.0473
12.0616
12.067
12.0655
12.0626
12.0639
12.0712
12.0824
12.0937
12.1022
12.1054
12.105
1
1
1
1
1
1
1
1
1
1
1
1
1
1
1
1
1
1
1
1
1
1
1
1
1
1
1
1
1
1
1
1
1
1
1
1
1
1
1
1
1
1
1
1
1
1
1
1
1
1
1
1
1
1
1
1
1
1
1
1
1
1
1
1
1
1
1
1
1
1
1
1
1
1
1
1
1
1
1
1
1
1
1
1
1
1
1
1
1
1
1
1
1
1
1
1
1
1
1
1
1
1
1
1
1
3.64213
9.96547
10.565
10.606
10.6625
10.7124
10.7516
10.776
10.7866
10.7849
10.7825
10.7873
10.805
10.8414
10.8987
10.958
11.0017
11.0305
11.0533
11.0784
11.1107
11.1434
11.1739
11.2003
11.2239
11.2447
11.2694
11.2978
11.3283
11.3515
11.3676
11.3803
11.3889
11.3944
11.4018
11.4122
11.4232
11.4399
11.463
11.4956
11.5309
11.5623
11.5879
11.6103
11.6335
11.6587
11.6864
11.715
11.7414
11.7612
11.7743
11.7805
11.7837
11.7886
11.8013
11.8238
11.8482
11.8648
11.8699
11.8615
11.8443
11.8306
11.8264
11.839
11.8681
11.9006
11.9338
11.9624
11.9802
11.9858
11.9867
11.9851
11.9862
11.994
12.0083
12.0255
12.0405
12.0503
12.0556
12.0582
12.0613
12.0666
12.074
12.0819
12.089
12.0933
12.0926
1
1
1
1
1
1
1
1
1
1
1
1
1
1
1
1
1
1
1
1
1
1
1
1
1
1
1
1
1
1
1
1
1
1
1
1
1
1
1
1
1
1
1
1
1
1
1
1
1
1
1
1
1
1
1
1
1
1
1
1
1
1
1
1
1
1
1
1
1
1
1
1
1
1
1
1
1
1
1
1
1
1
1
1
1
1
1
1
1
1
1
1
1
1
1
1
1
1
1
1
1
1
1
1
1
3.32678
9.77649
10.5482
10.5916
10.6547
10.7035
10.7441
10.7686
10.7785
10.7756
10.7751
10.7844
10.7978
10.8333
10.8906
10.9493
10.993
11.0227
11.0474
11.0743
11.1066
11.1387
11.1674
11.1916
11.2141
11.2357
11.2615
11.2921
11.3233
11.3445
11.3599
11.3708
11.3801
11.3879
11.3984
11.4093
11.4219
11.4367
11.4564
11.4848
11.5165
11.5456
11.5712
11.5958
11.6219
11.6496
11.6786
11.707
11.7325
11.7517
11.7654
11.7727
11.7762
11.7799
11.7897
11.809
11.8333
11.8542
11.865
11.8604
11.8422
11.8221
11.8089
11.814
11.8428
11.8829
11.9257
11.9614
11.9812
11.985
11.9828
11.9788
11.9772
11.9808
11.99
12.0034
12.0174
12.0306
12.0425
12.0522
12.0589
12.0631
12.0665
12.0704
12.0749
12.079
12.0782
1
1
1
1
1
1
1
1
1
1
1
1
1
1
1
1
1
1
1
1
1
1
1
1
1
1
1
1
1
1
1
1
1
1
1
1
1
1
1
1
1
1
1
1
1
1
1
1
1
1
1
1
1
1
1
1
1
1
1
1
1
1
1
1
1
1
1
1
1
1
1
1
1
1
1
1
1
1
1
1
1
1
1
1
1
1
1
1
1
1
1
1
1
1
1
1
1
1
1
1
1
1
1
1
1
3.01338
9.56601
10.5311
10.5748
10.6489
10.7003
10.7398
10.7626
10.7686
10.7637
10.7678
10.7763
10.794
10.8283
10.8848
10.9409
10.9833
11.0132
11.0397
11.0685
11.101
11.1327
11.1599
11.1825
11.2038
11.2259
11.2522
11.2845
11.315
11.3337
11.3478
11.3573
11.3677
11.3789
11.394
11.4068
11.4219
11.4361
11.4523
11.476
11.5034
11.5295
11.5539
11.5795
11.6078
11.6379
11.6686
11.6977
11.7233
11.7423
11.7566
11.765
11.7691
11.7718
11.7789
11.7948
11.8178
11.8415
11.8573
11.8571
11.8389
11.8133
11.7918
11.7898
11.8169
11.8631
11.9149
11.9576
11.9802
11.9829
11.9779
11.9718
11.9684
11.969
11.9737
11.9828
11.995
12.0098
12.0269
12.0431
12.0539
12.0584
12.0589
12.0592
12.0609
12.0639
12.0631
1
1
1
1
1
1
1
1
1
1
1
1
1
1
1
1
1
1
1
1
1
1
1
1
1
1
1
1
1
1
1
1
1
1
1
1
1
1
1
1
1
1
1
1
1
1
1
1
1
1
1
1
1
1
1
1
1
1
1
1
1
1
1
1
1
1
1
1
1
1
1
1
1
1
1
1
1
1
1
1
1
1
1
1
1
1
1
1
1
1
1
1
1
1
1
1
1
1
1
1
1
1
1
1
1
2.66866
9.32005
10.5342
10.5622
10.6415
10.6948
10.7351
10.7576
10.7605
10.755
10.7535
10.7649
10.7876
10.8231
10.8799
10.9338
10.9755
11.0048
11.0319
11.0617
11.0942
11.1257
11.1522
11.1742
11.1952
11.2179
11.2441
11.2764
11.3046
11.3215
11.333
11.34
11.3513
11.366
11.3843
11.4016
11.4199
11.4354
11.4493
11.4694
11.4923
11.5154
11.5383
11.5634
11.5923
11.6234
11.6555
11.686
11.7127
11.7324
11.7473
11.7566
11.7614
11.7636
11.7686
11.7816
11.8025
11.827
11.8462
11.85
11.8326
11.8037
11.7766
11.7696
11.7946
11.8444
11.9025
11.9503
11.9752
11.9774
11.9699
11.9624
11.9581
11.9578
11.9601
11.9656
11.9754
11.9905
12.0102
12.0301
12.0444
12.0503
12.0499
12.0479
12.0475
12.0487
12.0487
1
1
1
1
1
1
1
1
1
1
1
1
1
1
1
1
1
1
1
1
1
1
1
1
1
1
1
1
1
1
1
1
1
1
1
1
1
1
1
1
1
1
1
1
1
1
1
1
1
1
1
1
1
1
1
1
1
1
1
1
1
1
1
1
1
1
1
1
1
1
1
1
1
1
1
1
1
1
1
1
1
1
1
1
1
1
1
1
1
1
1
1
1
1
1
1
1
1
1
1
1
1
1
1
1
2.32239
9.04176
10.5472
10.5595
10.6339
10.6871
10.7274
10.7508
10.755
10.745
10.7408
10.7506
10.7756
10.8133
10.8722
10.9266
10.9694
10.9992
11.0259
11.055
11.0859
11.1166
11.1432
11.166
11.1883
11.2117
11.2372
11.2681
11.2936
11.3099
11.3188
11.323
11.334
11.3498
11.3689
11.3913
11.4133
11.4311
11.4453
11.4633
11.4824
11.5037
11.5255
11.5498
11.5775
11.6078
11.6399
11.6714
11.6997
11.7209
11.737
11.7472
11.7528
11.7547
11.7584
11.7694
11.788
11.8114
11.832
11.8385
11.8225
11.7932
11.7639
11.7549
11.7784
11.8291
11.8894
11.9389
11.965
11.9669
11.9576
11.9493
11.9459
11.9467
11.9491
11.9527
11.9601
11.9737
11.9931
12.0134
12.0294
12.0373
12.0382
12.0362
12.035
12.0347
12.0359
1
1
1
1
1
1
1
1
1
1
1
1
1
1
1
1
1
1
1
1
1
1
1
1
1
1
1
1
1
1
1
1
1
1
1
1
1
1
1
1
1
1
1
1
1
1
1
1
1
1
1
1
1
1
1
1
1
1
1
1
1
1
1
1
1
1
1
1
1
1
1
1
1
1
1
1
1
1
1
1
1
1
1
1
1
1
1
1
1
1
1
1
1
1
1
1
1
1
1
1
1
1
1
1
1
2.00648
8.71677
10.5498
10.557
10.6249
10.6777
10.7189
10.7434
10.7533
10.7438
10.7338
10.7393
10.7613
10.8001
10.8607
10.9173
10.9634
10.9948
11.0206
11.0472
11.0751
11.1045
11.1321
11.1575
11.1825
11.2068
11.2317
11.2598
11.283
11.2994
11.3085
11.3125
11.3216
11.3349
11.3514
11.376
11.4005
11.4206
11.4377
11.4553
11.4729
11.4937
11.5158
11.5397
11.5656
11.5934
11.6235
11.6542
11.6836
11.7065
11.7247
11.7362
11.7426
11.7446
11.7479
11.7572
11.7739
11.7955
11.8156
11.8229
11.809
11.7819
11.7541
11.7456
11.769
11.8184
11.8769
11.9245
11.9495
11.9506
11.9403
11.9323
11.9312
11.9349
11.9396
11.9435
11.949
11.9597
11.9756
11.9934
12.009
12.0189
12.023
12.0235
12.0236
12.0223
12.0254
1
1
1
1
1
1
1
1
1
1
1
1
1
1
1
1
1
1
1
1
1
1
1
1
1
1
1
1
1
1
1
1
1
1
1
1
1
1
1
1
1
1
1
1
1
1
1
1
1
1
1
1
1
1
1
1
1
1
1
1
1
1
1
1
1
1
1
1
1
1
1
1
1
1
1
1
1
1
1
1
1
1
1
1
1
1
1
1
1
1
1
1
1
1
1
1
1
1
1
1
1
1
1
1
1
1.72161
8.32759
10.5445
10.5552
10.614
10.6638
10.7093
10.7395
10.7546
10.7484
10.7369
10.7352
10.7499
10.7843
10.8441
10.9039
10.9549
10.9903
11.0167
11.0404
11.0646
11.0915
11.1198
11.1485
11.1769
11.2024
11.2271
11.2511
11.2724
11.2901
11.3015
11.3069
11.3145
11.3251
11.3376
11.3604
11.3838
11.4044
11.425
11.4432
11.4618
11.4839
11.5078
11.5327
11.557
11.5817
11.6081
11.6361
11.6648
11.6888
11.7094
11.7228
11.7304
11.7332
11.7365
11.7449
11.7603
11.7797
11.7977
11.8044
11.7931
11.7701
11.7465
11.7414
11.7655
11.8119
11.8651
11.9073
11.9287
11.9282
11.9181
11.9118
11.914
11.9219
11.9309
11.9371
11.9417
11.9482
11.9583
11.9711
11.9846
11.9959
12.0044
12.0094
12.0125
12.0113
12.0163
1
1
1
1
1
1
1
1
1
1
1
1
1
1
1
1
1
1
1
1
1
1
1
1
1
1
1
1
1
1
1
1
1
1
1
1
1
1
1
1
1
1
1
1
1
1
1
1
1
1
1
1
1
1
1
1
1
1
1
1
1
1
1
1
1
1
1
1
1
1
1
1
1
1
1
1
1
1
1
1
1
1
1
1
1
1
1
1
1
1
1
1
1
1
1
1
1
1
1
1
1
1
1
1
1
1.4722
7.87728
10.5324
10.5478
10.5984
10.646
10.6946
10.7323
10.753
10.7519
10.7414
10.734
10.7434
10.774
10.8312
10.8925
10.9465
10.9849
11.0118
11.0321
11.0525
11.0767
11.1057
11.1379
11.1699
11.1975
11.2223
11.2426
11.2619
11.2805
11.2951
11.3039
11.3114
11.32
11.3286
11.3478
11.3677
11.3863
11.4079
11.4268
11.4477
11.4727
11.5
11.5274
11.5513
11.5734
11.5955
11.6186
11.6447
11.6683
11.6908
11.7068
11.716
11.7198
11.7238
11.7321
11.7468
11.764
11.7786
11.7841
11.7752
11.7573
11.7404
11.7408
11.7665
11.8085
11.854
11.8884
11.9043
11.9018
11.893
11.8893
11.8953
11.9079
11.9218
11.9314
11.9357
11.9376
11.9408
11.9475
11.9576
11.97
11.983
11.9936
12.0008
12.0006
12.0073
1
1
1
1
1
1
1
1
1
1
1
1
1
1
1
1
1
1
1
1
1
1
1
1
1
1
1
1
1
1
1
1
1
1
1
1
1
1
1
1
1
1
1
1
1
1
1
1
1
1
1
1
1
1
1
1
1
1
1
1
1
1
1
1
1
1
1
1
1
1
1
1
1
1
1
1
1
1
1
1
1
1
1
1
1
1
1
1
1
1
1
1
1
1
1
1
1
1
1
1
1
1
1
1
1
1.24078
7.36678
10.5212
10.5459
10.5941
10.6413
10.6867
10.7239
10.7479
10.7515
10.7414
10.731
10.7368
10.7629
10.817
10.8801
10.9368
10.9779
11.0052
11.0225
11.0396
11.0609
11.0899
11.1256
11.1615
11.1921
11.217
11.235
11.2516
11.2697
11.2864
11.2989
11.3085
11.3173
11.3231
11.3389
11.3543
11.3698
11.3898
11.4083
11.4305
11.4587
11.4905
11.5219
11.5469
11.5674
11.5854
11.6032
11.6253
11.6466
11.6699
11.6879
11.6989
11.7042
11.7096
11.7186
11.7329
11.7485
11.7597
11.763
11.7558
11.743
11.7346
11.7419
11.7693
11.8065
11.843
11.8684
11.8779
11.8735
11.8668
11.8663
11.8759
11.8927
11.9104
11.9231
11.928
11.9262
11.9231
11.9238
11.9305
11.9435
11.9608
11.9767
11.9881
11.9893
11.9968
1
1
1
1
1
1
1
1
1
1
1
1
1
1
1
1
1
1
1
1
1
1
1
1
1
1
1
1
1
1
1
1
1
1
1
1
1
1
1
1
1
1
1
1
1
1
1
1
1
1
1
1
1
1
1
1
1
1
1
1
1
1
1
1
1
1
1
1
1
1
1
1
1
1
1
1
1
1
1
1
1
1
1
1
1
1
1
1
1
1
1
1
1
1
1
1
1
1
1
1
1
1
1
1
1
1.02045
6.79873
10.5252
10.5473
10.584
10.6257
10.6689
10.707
10.7328
10.7415
10.7355
10.7266
10.7311
10.7546
10.8046
10.8679
10.9259
10.9688
10.997
11.0131
11.0274
11.0458
11.0732
11.11
11.1489
11.1839
11.2102
11.2282
11.2432
11.259
11.2754
11.2899
11.3021
11.3124
11.318
11.3314
11.3435
11.3563
11.373
11.3893
11.4106
11.4408
11.4775
11.5138
11.5417
11.5628
11.577
11.5903
11.6074
11.6256
11.6478
11.6667
11.6795
11.6867
11.694
11.7042
11.7184
11.7326
11.7408
11.7413
11.7351
11.7274
11.7276
11.7425
11.7712
11.8037
11.8313
11.8476
11.8506
11.8456
11.8414
11.8443
11.857
11.8762
11.896
11.9108
11.9165
11.913
11.9057
11.9016
11.9053
11.9184
11.9386
11.9586
11.9731
11.9757
11.983
1
1
1
1
1
1
1
1
1
1
1
1
1
1
1
1
1
1
1
1
1
1
1
1
1
1
1
1
1
1
1
1
1
1
1
1
1
1
1
1
1
1
1
1
1
1
1
1
1
1
1
1
1
1
1
1
1
1
1
1
1
1
1
1
1
1
1
1
1
1
1
1
1
1
1
1
1
1
1
1
1
1
1
1
1
1
1
1
1
1
1
1
1
1
1
1
1
1
1
1
1
1
1
1
1
1.00016
6.10811
10.435
10.5285
10.5788
10.6207
10.6603
10.6979
10.7233
10.7329
10.7278
10.7196
10.7232
10.7456
10.7927
10.8557
10.9147
10.9591
10.9887
11.0046
11.0163
11.0316
11.0557
11.091
11.1318
11.1703
11.2007
11.2212
11.2363
11.2508
11.2649
11.2782
11.2908
11.3021
11.3096
11.3223
11.3334
11.345
11.3587
11.3723
11.3905
11.4207
11.4603
11.5015
11.534
11.5574
11.5699
11.5793
11.5914
11.606
11.6258
11.644
11.6584
11.6679
11.6769
11.6887
11.7029
11.7157
11.7214
11.7193
11.7135
11.7106
11.7191
11.7406
11.7705
11.7985
11.8179
11.826
11.8245
11.8199
11.8185
11.8246
11.8392
11.8582
11.8776
11.8926
11.8994
11.8965
11.888
11.8815
11.8833
11.8963
11.9177
11.9397
11.9558
11.9595
11.9659
1
1
1
1
1
1
1
1
1
1
1
1
1
1
1
1
1
1
1
1
1
1
1
1
1
1
1
1
1
1
1
1
1
1
1
1
1
1
1
1
1
1
1
1
1
1
1
1
1
1
1
1
1
1
1
1
1
1
1
1
1
1
1
1
1
1
1
1
1
1
1
1
1
1
1
1
1
1
1
1
1
1
1
1
1
1
1
1
1
1
1
1
1
1
1
1
1
1
1
1
1
1
1
1
1
1
5.37978
10.3367
10.5151
10.5683
10.6134
10.6551
10.6907
10.7146
10.7233
10.7184
10.7105
10.713
10.7348
10.7805
10.8429
10.9038
10.95
10.9806
10.997
11.0076
11.0198
11.0402
11.0718
11.1115
11.151
11.1854
11.2104
11.2287
11.2442
11.2574
11.2684
11.2784
11.2883
11.2972
11.3092
11.3218
11.3337
11.3458
11.3574
11.3713
11.3991
11.4401
11.4848
11.5226
11.5496
11.5628
11.5695
11.5773
11.5879
11.6041
11.6208
11.6363
11.648
11.6588
11.6722
11.6861
11.6974
11.7016
11.6976
11.6923
11.6932
11.7081
11.7349
11.7649
11.7889
11.8022
11.8042
11.8004
11.7968
11.7986
11.8075
11.8218
11.8384
11.8549
11.8686
11.8767
11.8763
11.8699
11.864
11.8655
11.8777
11.8983
11.9197
11.9356
11.9397
11.9448
1
1
1
1
1
1
1
1
1
1
1
1
1
1
1
1
1
1
1
1
1
1
1
1
1
1
1
1
1
1
1
1
1
1
1
1
1
1
1
1
1
1
1
1
1
1
1
1
1
1
1
1
1
1
1
1
1
1
1
1
1
1
1
1
1
1
1
1
1
1
1
1
1
1
1
1
1
1
1
1
1
1
1
1
1
1
1
1
1
1
1
1
1
1
1
1
1
1
1
1
1
1
1
1
1
1
4.6492
10.2003
10.5082
10.5615
10.6064
10.6472
10.6815
10.7057
10.7141
10.7094
10.7018
10.7039
10.7249
10.7694
10.8306
10.8929
10.9406
10.9722
10.9899
11.0004
11.0113
11.0292
11.0576
11.0921
11.1277
11.1629
11.1931
11.2165
11.2352
11.2498
11.2596
11.2668
11.274
11.2817
11.2924
11.3064
11.3204
11.3331
11.3437
11.355
11.3787
11.4184
11.4647
11.5073
11.5388
11.5547
11.5602
11.5644
11.5707
11.5829
11.5977
11.6138
11.6275
11.6399
11.6541
11.6676
11.6778
11.6811
11.6764
11.672
11.6763
11.6951
11.7244
11.7535
11.774
11.783
11.7826
11.7785
11.777
11.7817
11.792
11.8045
11.8167
11.8284
11.84
11.8491
11.8528
11.8512
11.8486
11.8511
11.8621
11.8801
11.8987
11.9125
11.9164
11.92
1
1
1
1
1
1
1
1
1
1
1
1
1
1
1
1
1
1
1
1
1
1
1
1
1
1
1
1
1
1
1
1
1
1
1
1
1
1
1
1
1
1
1
1
1
1
1
1
1
1
1
1
1
1
1
1
1
1
1
1
1
1
1
1
1
1
1
1
1
1
1
1
1
1
1
1
1
1
1
1
1
1
1
1
1
1
1
1
1
1
1
1
1
1
1
1
1
1
1
1
1
1
1
1
1
1
3.95014
10.0116
10.5038
10.5483
10.5964
10.6391
10.6749
10.6987
10.7069
10.7024
10.695
10.6972
10.7166
10.7588
10.818
10.8803
10.9286
10.9617
10.9823
10.994
11.0055
11.0223
11.048
11.0755
11.1056
11.1383
11.1704
11.1984
11.222
11.24
11.2515
11.2577
11.2617
11.2654
11.2732
11.2867
11.3031
11.3187
11.3306
11.3413
11.3609
11.3967
11.4422
11.4882
11.5241
11.5445
11.5505
11.5524
11.5543
11.5625
11.575
11.5912
11.6067
11.6207
11.6346
11.6472
11.6565
11.6596
11.6564
11.6539
11.6611
11.6812
11.7092
11.7354
11.7533
11.7607
11.7606
11.7585
11.7602
11.7671
11.7771
11.7861
11.7926
11.7993
11.8083
11.8184
11.8269
11.8319
11.8341
11.8384
11.8479
11.8621
11.8765
11.8872
11.8902
11.8923
1
1
1
1
1
1
1
1
1
1
1
1
1
1
1
1
1
1
1
1
1
1
1
1
1
1
1
1
1
1
1
1
1
1
1
1
1
1
1
1
1
1
1
1
1
1
1
1
1
1
1
1
1
1
1
1
1
1
1
1
1
1
1
1
1
1
1
1
1
1
1
1
1
1
1
1
1
1
1
1
1
1
1
1
1
1
1
1
1
1
1
1
1
1
1
1
1
1
1
1
1
1
1
1
1
1
3.31022
9.74099
10.5042
10.5374
10.5881
10.63
10.6675
10.6914
10.6995
10.6965
10.6906
10.6931
10.7111
10.75
10.8065
10.8676
10.9147
10.9473
10.9689
10.9833
10.9974
11.0159
11.0394
11.0637
11.0895
11.1179
11.1474
11.1764
11.2034
11.2259
11.2414
11.2486
11.2509
11.2514
11.2547
11.2656
11.283
11.3019
11.3161
11.3284
11.3457
11.3763
11.419
11.466
11.5064
11.5316
11.5394