/*--------------------------------*- C++ -*----------------------------------*\
  =========                 |
  \\      /  F ield         | OpenFOAM: The Open Source CFD Toolbox
   \\    /   O peration     | Website:  https://openfoam.org
    \\  /    A nd           | Version:  7
     \\/     M anipulation  |
\*---------------------------------------------------------------------------*/
FoamFile
{
    version     2.0;
    format      ascii;
    class       volScalarField;
    location    "1.3";
    object      rho;
}
// * * * * * * * * * * * * * * * * * * * * * * * * * * * * * * * * * * * * * //

dimensions      [1 -3 0 0 0 0 0];

internalField   nonuniform List<scalar> 
258048
(
1.40001
1.40001
1.40001
1.40001
1.40001
1.40001
1.40001
1.40001
1.40001
1.40001
1.40001
1.40001
1.40001
1.40001
1.40001
1.40001
1.40001
1.40001
1.40001
1.40001
1.40001
1.40001
1.40001
1.40001
1.40001
1.40001
1.40001
1.40001
1.40001
1.40001
1.40001
1.40001
1.40001
1.40001
1.40001
1.40001
1.40001
1.40001
1.40001
1.40001
1.40001
1.40001
1.40001
1.40001
1.40001
1.40001
1.40001
1.40001
1.40001
1.40001
1.40001
1.40001
1.40001
1.40001
1.40001
1.40001
1.40001
1.40001
1.40001
1.40001
1.40001
1.40001
1.40001
1.40001
1.40001
1.40001
1.40001
1.40001
1.40001
1.40001
1.40001
1.40001
1.40001
1.40001
1.40001
1.40001
1.40001
1.40001
1.40001
1.40001
1.40001
1.40001
1.40001
1.40001
1.40001
1.40001
1.40001
1.40001
1.40001
1.40001
1.40001
1.40001
1.40001
1.40001
1.40001
1.40001
1.40001
1.40001
1.40001
1.40001
1.40001
1.40001
1.40001
1.40001
1.54985
4.34872
5.44677
5.47356
5.499
5.52256
5.53683
5.54194
5.53472
5.52239
5.51285
5.51114
5.5148
5.52726
5.5469
5.5695
5.59089
5.60988
5.62674
5.64226
5.65847
5.67552
5.69113
5.70391
5.71297
5.71599
5.71172
5.70414
5.69771
5.69611
5.70165
5.71182
5.72354
5.739
5.7558
5.76995
5.77993
5.78826
5.79395
5.79613
5.79657
5.79749
5.80196
5.80937
5.81942
5.8316
5.84465
5.85626
5.86411
5.86744
5.86787
5.86787
5.86938
5.87361
5.88128
5.8911
5.89913
5.90221
5.89858
5.88938
5.87927
5.87281
5.87231
5.877
5.88215
5.88446
5.88413
5.88318
5.8844
5.89048
5.90159
5.91441
5.92498
5.92941
5.92613
5.91683
5.90438
5.89406
5.88966
5.89002
5.88995
5.87893
5.84271
5.77259
5.67782
5.5876
5.53026
5.51103
1.40001
1.40001
1.40001
1.40001
1.40001
1.40001
1.40001
1.40001
1.40001
1.40001
1.40001
1.40001
1.40001
1.40001
1.40001
1.40001
1.40001
1.40001
1.40001
1.40001
1.40001
1.40001
1.40001
1.40001
1.40001
1.40001
1.40001
1.40001
1.40001
1.40001
1.40001
1.40001
1.40001
1.40001
1.40001
1.40001
1.40001
1.40001
1.40001
1.40001
1.40001
1.40001
1.40001
1.40001
1.40001
1.40001
1.40001
1.40001
1.40001
1.40001
1.40001
1.40001
1.40001
1.40001
1.40001
1.40001
1.40001
1.40001
1.40001
1.40001
1.40001
1.40001
1.40001
1.40001
1.40001
1.40001
1.40001
1.40001
1.40001
1.40001
1.40001
1.40001
1.40001
1.40001
1.40001
1.40001
1.40001
1.40001
1.40001
1.40001
1.40001
1.40001
1.40001
1.40001
1.40001
1.40001
1.40001
1.40001
1.40001
1.40001
1.40001
1.40001
1.40001
1.40001
1.40001
1.40001
1.40001
1.40001
1.40001
1.40001
1.40001
1.40001
1.40001
1.40001
1.54454
4.33473
5.44343
5.47593
5.50228
5.52638
5.53937
5.54201
5.53409
5.52154
5.51318
5.51103
5.51477
5.52716
5.54688
5.56947
5.5908
5.60973
5.62652
5.64197
5.6582
5.67538
5.69112
5.70382
5.7128
5.7158
5.71161
5.70429
5.69813
5.69674
5.7024
5.71258
5.72431
5.73963
5.75624
5.77011
5.77983
5.78805
5.79362
5.79571
5.79609
5.79699
5.80151
5.809
5.81899
5.8311
5.84405
5.85558
5.86334
5.8667
5.86731
5.86768
5.86969
5.87437
5.88204
5.89125
5.8986
5.90119
5.89782
5.88968
5.88051
5.87442
5.87342
5.87687
5.88107
5.88333
5.88388
5.88419
5.8865
5.89255
5.90215
5.91297
5.92199
5.92595
5.92334
5.91538
5.90457
5.8955
5.89128
5.89106
5.89008
5.87821
5.8417
5.77183
5.67748
5.58748
5.53008
5.51036
1.40001
1.40001
1.40001
1.40001
1.40001
1.40001
1.40001
1.40001
1.40001
1.40001
1.40001
1.40001
1.40001
1.40001
1.40001
1.40001
1.40001
1.40001
1.40001
1.40001
1.40001
1.40001
1.40001
1.40001
1.40001
1.40001
1.40001
1.40001
1.40001
1.40001
1.40001
1.40001
1.40001
1.40001
1.40001
1.40001
1.40001
1.40001
1.40001
1.40001
1.40001
1.40001
1.40001
1.40001
1.40001
1.40001
1.40001
1.40001
1.40001
1.40001
1.40001
1.40001
1.40001
1.40001
1.40001
1.40001
1.40001
1.40001
1.40001
1.40001
1.40001
1.40001
1.40001
1.40001
1.40001
1.40001
1.40001
1.40001
1.40001
1.40001
1.40001
1.40001
1.40001
1.40001
1.40001
1.40001
1.40001
1.40001
1.40001
1.40001
1.40001
1.40001
1.40001
1.40001
1.40001
1.40001
1.40001
1.40001
1.40001
1.40001
1.40001
1.40001
1.40001
1.40001
1.40001
1.40001
1.40001
1.40001
1.40001
1.40001
1.40001
1.40001
1.40001
1.40001
1.53426
4.31101
5.44217
5.47959
5.50642
5.53051
5.54126
5.54065
5.53206
5.52021
5.51195
5.50989
5.51408
5.52665
5.54646
5.56909
5.59048
5.60943
5.62615
5.6415
5.65778
5.67508
5.69097
5.70355
5.71235
5.71521
5.71114
5.70421
5.69843
5.69745
5.70336
5.71362
5.72539
5.74061
5.75702
5.77058
5.78003
5.78806
5.7933
5.79506
5.79524
5.79617
5.80095
5.80866
5.81855
5.83042
5.84307
5.85436
5.86198
5.8655
5.86653
5.86752
5.87018
5.87527
5.88269
5.89104
5.89752
5.8997
5.89689
5.89009
5.88203
5.8762
5.8743
5.87614
5.87935
5.88175
5.88351
5.88567
5.88948
5.89556
5.9035
5.91184
5.91833
5.92099
5.9187
5.91242
5.90433
5.89768
5.89432
5.89345
5.89083
5.87713
5.83955
5.76964
5.67596
5.58668
5.52982
5.50985
1.40001
1.40001
1.40001
1.40001
1.40001
1.40001
1.40001
1.40001
1.40001
1.40001
1.40001
1.40001
1.40001
1.40001
1.40001
1.40001
1.40001
1.40001
1.40001
1.40001
1.40001
1.40001
1.40001
1.40001
1.40001
1.40001
1.40001
1.40001
1.40001
1.40001
1.40001
1.40001
1.40001
1.40001
1.40001
1.40001
1.40001
1.40001
1.40001
1.40001
1.40001
1.40001
1.40001
1.40001
1.40001
1.40001
1.40001
1.40001
1.40001
1.40001
1.40001
1.40001
1.40001
1.40001
1.40001
1.40001
1.40001
1.40001
1.40001
1.40001
1.40001
1.40001
1.40001
1.40001
1.40001
1.40001
1.40001
1.40001
1.40001
1.40001
1.40001
1.40001
1.40001
1.40001
1.40001
1.40001
1.40001
1.40001
1.40001
1.40001
1.40001
1.40001
1.40001
1.40001
1.40001
1.40001
1.40001
1.40001
1.40001
1.40001
1.40001
1.40001
1.40001
1.40001
1.40001
1.40001
1.40001
1.40001
1.40001
1.40001
1.40001
1.40001
1.40001
1.40001
1.51836
4.27236
5.44222
5.48598
5.51384
5.53379
5.54043
5.53812
5.52979
5.5187
5.51098
5.50901
5.51336
5.52608
5.54585
5.56853
5.59004
5.60912
5.62585
5.64117
5.6575
5.67487
5.69079
5.70308
5.71154
5.71424
5.71035
5.70389
5.69857
5.69805
5.70421
5.71451
5.72631
5.74144
5.7577
5.77101
5.78019
5.78804
5.79283
5.79411
5.79401
5.79498
5.80014
5.80823
5.81807
5.82957
5.84171
5.85258
5.86004
5.86387
5.8656
5.86751
5.87103
5.87652
5.88351
5.89066
5.89594
5.89767
5.8954
5.89012
5.88368
5.87823
5.87531
5.87526
5.87733
5.87996
5.88319
5.88736
5.89259
5.89863
5.90494
5.91068
5.91426
5.91515
5.91301
5.90863
5.9037
5.89982
5.89764
5.89624
5.89177
5.87584
5.83678
5.76658
5.67355
5.58515
5.52911
5.50902
1.40001
1.40001
1.40001
1.40001
1.40001
1.40001
1.40001
1.40001
1.40001
1.40001
1.40001
1.40001
1.40001
1.40001
1.40001
1.40001
1.40001
1.40001
1.40001
1.40001
1.40001
1.40001
1.40001
1.40001
1.40001
1.40001
1.40001
1.40001
1.40001
1.40001
1.40001
1.40001
1.40001
1.40001
1.40001
1.40001
1.40001
1.40001
1.40001
1.40001
1.40001
1.40001
1.40001
1.40001
1.40001
1.40001
1.40001
1.40001
1.40001
1.40001
1.40001
1.40001
1.40001
1.40001
1.40001
1.40001
1.40001
1.40001
1.40001
1.40001
1.40001
1.40001
1.40001
1.40001
1.40001
1.40001
1.40001
1.40001
1.40001
1.40001
1.40001
1.40001
1.40001
1.40001
1.40001
1.40001
1.40001
1.40001
1.40001
1.40001
1.40001
1.40001
1.40001
1.40001
1.40001
1.40001
1.40001
1.40001
1.40001
1.40001
1.40001
1.40001
1.40001
1.40001
1.40001
1.40001
1.40001
1.40001
1.40001
1.40001
1.40001
1.40001
1.40001
1.40001
1.49395
4.21961
5.45735
5.49583
5.52003
5.53411
5.53811
5.53589
5.52832
5.51786
5.51004
5.50776
5.51206
5.5249
5.54469
5.56754
5.58933
5.60866
5.62556
5.64099
5.65735
5.67473
5.69052
5.70235
5.71038
5.71291
5.70916
5.70311
5.69827
5.6982
5.70462
5.7149
5.72667
5.74175
5.75799
5.77126
5.78038
5.7881
5.79233
5.79296
5.7925
5.79351
5.79919
5.80789
5.81792
5.82899
5.84033
5.85052
5.85772
5.86195
5.86464
5.86765
5.87203
5.8778
5.88413
5.88985
5.8938
5.89506
5.89359
5.88993
5.88497
5.87986
5.87592
5.87416
5.8751
5.87811
5.88281
5.88868
5.89506
5.90116
5.90627
5.90961
5.91074
5.90966
5.90713
5.90426
5.90214
5.90101
5.9004
5.89897
5.89291
5.87471
5.83379
5.76285
5.67024
5.58284
5.528
5.50819
1.40001
1.40001
1.40001
1.40001
1.40001
1.40001
1.40001
1.40001
1.40001
1.40001
1.40001
1.40001
1.40001
1.40001
1.40001
1.40001
1.40001
1.40001
1.40001
1.40001
1.40001
1.40001
1.40001
1.40001
1.40001
1.40001
1.40001
1.40001
1.40001
1.40001
1.40001
1.40001
1.40001
1.40001
1.40001
1.40001
1.40001
1.40001
1.40001
1.40001
1.40001
1.40001
1.40001
1.40001
1.40001
1.40001
1.40001
1.40001
1.40001
1.40001
1.40001
1.40001
1.40001
1.40001
1.40001
1.40001
1.40001
1.40001
1.40001
1.40001
1.40001
1.40001
1.40001
1.40001
1.40001
1.40001
1.40001
1.40001
1.40001
1.40001
1.40001
1.40001
1.40001
1.40001
1.40001
1.40001
1.40001
1.40001
1.40001
1.40001
1.40001
1.40001
1.40001
1.40001
1.40001
1.40001
1.40001
1.40001
1.40001
1.40001
1.40001
1.40001
1.40001
1.40001
1.40001
1.40001
1.40001
1.40001
1.40001
1.40001
1.40001
1.40001
1.40001
1.40001
1.45259
4.16922
5.48521
5.50375
5.52004
5.53172
5.53568
5.5342
5.52707
5.51673
5.50865
5.50615
5.51052
5.52358
5.54356
5.56673
5.5889
5.60849
5.62555
5.64113
5.65749
5.67472
5.69009
5.70126
5.70891
5.71127
5.70772
5.70205
5.69761
5.69791
5.70447
5.71459
5.7263
5.74135
5.75771
5.77114
5.78037
5.78796
5.7916
5.7914
5.79044
5.79158
5.79794
5.80751
5.81799
5.82876
5.83921
5.84851
5.85529
5.85991
5.86366
5.86778
5.87285
5.87854
5.88397
5.88838
5.89111
5.89205
5.89159
5.88949
5.88586
5.88102
5.87617
5.87323
5.87297
5.87605
5.88217
5.88927
5.89638
5.90249
5.90699
5.90909
5.90848
5.90575
5.9024
5.90004
5.89958
5.90048
5.90151
5.90066
5.8939
5.87388
5.83095
5.75875
5.66617
5.57975
5.52639
5.50735
1.40001
1.40001
1.40001
1.40001
1.40001
1.40001
1.40001
1.40001
1.40001
1.40001
1.40001
1.40001
1.40001
1.40001
1.40001
1.40001
1.40001
1.40001
1.40001
1.40001
1.40001
1.40001
1.40001
1.40001
1.40001
1.40001
1.40001
1.40001
1.40001
1.40001
1.40001
1.40001
1.40001
1.40001
1.40001
1.40001
1.40001
1.40001
1.40001
1.40001
1.40001
1.40001
1.40001
1.40001
1.40001
1.40001
1.40001
1.40001
1.40001
1.40001
1.40001
1.40001
1.40001
1.40001
1.40001
1.40001
1.40001
1.40001
1.40001
1.40001
1.40001
1.40001
1.40001
1.40001
1.40001
1.40001
1.40001
1.40001
1.40001
1.40001
1.40001
1.40001
1.40001
1.40001
1.40001
1.40001
1.40001
1.40001
1.40001
1.40001
1.40001
1.40001
1.40001
1.40001
1.40001
1.40001
1.40001
1.40001
1.40001
1.40001
1.40001
1.40001
1.40001
1.40001
1.40001
1.40001
1.40001
1.40001
1.40001
1.40001
1.40001
1.40001
1.40001
1.40001
1.4161
4.12657
5.49775
5.50631
5.51798
5.52909
5.53353
5.53256
5.52579
5.51557
5.50725
5.50458
5.509
5.52232
5.54258
5.56618
5.58876
5.60854
5.62561
5.64128
5.65761
5.67453
5.68926
5.6997
5.70713
5.70943
5.70623
5.70099
5.69696
5.69753
5.70403
5.71378
5.72535
5.74037
5.75688
5.77052
5.77994
5.78738
5.79037
5.78919
5.78769
5.78908
5.79629
5.80704
5.81835
5.82902
5.8387
5.84705
5.8533
5.85807
5.86267
5.86769
5.87313
5.87841
5.88282
5.88599
5.88788
5.889
5.88967
5.88902
5.88653
5.88193
5.8762
5.87198
5.87082
5.87385
5.88072
5.88857
5.89613
5.90255
5.90717
5.90913
5.90764
5.90407
5.89966
5.89671
5.89642
5.89832
5.90064
5.90086
5.89427
5.87317
5.82841
5.75461
5.66158
5.57596
5.52419
5.50632
1.40001
1.40001
1.40001
1.40001
1.40001
1.40001
1.40001
1.40001
1.40001
1.40001
1.40001
1.40001
1.40001
1.40001
1.40001
1.40001
1.40001
1.40001
1.40001
1.40001
1.40001
1.40001
1.40001
1.40001
1.40001
1.40001
1.40001
1.40001
1.40001
1.40001
1.40001
1.40001
1.40001
1.40001
1.40001
1.40001
1.40001
1.40001
1.40001
1.40001
1.40001
1.40001
1.40001
1.40001
1.40001
1.40001
1.40001
1.40001
1.40001
1.40001
1.40001
1.40001
1.40001
1.40001
1.40001
1.40001
1.40001
1.40001
1.40001
1.40001
1.40001
1.40001
1.40001
1.40001
1.40001
1.40001
1.40001
1.40001
1.40001
1.40001
1.40001
1.40001
1.40001
1.40001
1.40001
1.40001
1.40001
1.40001
1.40001
1.40001
1.40001
1.40001
1.40001
1.40001
1.40001
1.40001
1.40001
1.40001
1.40001
1.40001
1.40001
1.40001
1.40001
1.40001
1.40001
1.40001
1.40001
1.40001
1.40001
1.40001
1.40001
1.40001
1.40001
1.40001
1.40036
4.06829
5.49226
5.50547
5.51608
5.52715
5.5317
5.53114
5.52452
5.5141
5.50544
5.50272
5.50722
5.52081
5.54149
5.5657
5.58889
5.60896
5.62604
5.64168
5.6578
5.67414
5.68797
5.69774
5.705
5.70743
5.70474
5.70005
5.69647
5.69726
5.70358
5.71285
5.72424
5.73911
5.75564
5.76942
5.77901
5.78624
5.78847
5.78621
5.78419
5.7859
5.79412
5.80637
5.81888
5.82973
5.83882
5.84636
5.85201
5.85666
5.86174
5.86726
5.87272
5.87734
5.88056
5.88267
5.88427
5.8861
5.88805
5.8888
5.8871
5.88233
5.87564
5.87025
5.86853
5.87129
5.8783
5.88644
5.89439
5.9015
5.90682
5.90912
5.90783
5.90404
5.89873
5.89443
5.89313
5.89494
5.89817
5.8996
5.89364
5.87229
5.82618
5.75073
5.65691
5.57177
5.52135
5.50477
1.40001
1.40001
1.40001
1.40001
1.40001
1.40001
1.40001
1.40001
1.40001
1.40001
1.40001
1.40001
1.40001
1.40001
1.40001
1.40001
1.40001
1.40001
1.40001
1.40001
1.40001
1.40001
1.40001
1.40001
1.40001
1.40001
1.40001
1.40001
1.40001
1.40001
1.40001
1.40001
1.40001
1.40001
1.40001
1.40001
1.40001
1.40001
1.40001
1.40001
1.40001
1.40001
1.40001
1.40001
1.40001
1.40001
1.40001
1.40001
1.40001
1.40001
1.40001
1.40001
1.40001
1.40001
1.40001
1.40001
1.40001
1.40001
1.40001
1.40001
1.40001
1.40001
1.40001
1.40001
1.40001
1.40001
1.40001
1.40001
1.40001
1.40001
1.40001
1.40001
1.40001
1.40001
1.40001
1.40001
1.40001
1.40001
1.40001
1.40001
1.40001
1.40001
1.40001
1.40001
1.40001
1.40001
1.40001
1.40001
1.40001
1.40001
1.40001
1.40001
1.40001
1.40001
1.40001
1.40001
1.40001
1.40001
1.40001
1.40001
1.40001
1.40001
1.40001
1.40001
1.40001
3.9895
5.48022
5.50382
5.51434
5.52557
5.53014
5.52954
5.52261
5.51192
5.50326
5.50074
5.50543
5.51924
5.54045
5.56534
5.58927
5.60979
5.62697
5.64236
5.65786
5.67319
5.68592
5.69521
5.70235
5.70512
5.70326
5.69933
5.69623
5.69725
5.70337
5.71215
5.72341
5.73807
5.75437
5.76812
5.77776
5.78457
5.78598
5.78262
5.78009
5.78215
5.79143
5.80528
5.8191
5.83045
5.83931
5.84627
5.85138
5.8558
5.86098
5.86648
5.87158
5.87524
5.87724
5.87861
5.88043
5.88355
5.88704
5.88896
5.8877
5.88236
5.87471
5.86845
5.86613
5.86859
5.87525
5.88343
5.89186
5.89965
5.90606
5.90924
5.90858
5.90499
5.89908
5.89328
5.89032
5.89118
5.89454
5.89675
5.8917
5.87072
5.82389
5.74712
5.65245
5.56745
5.51782
5.50239
1.40001
1.40001
1.40001
1.40001
1.40001
1.40001
1.40001
1.40001
1.40001
1.40001
1.40001
1.40001
1.40001
1.40001
1.40001
1.40001
1.40001
1.40001
1.40001
1.40001
1.40001
1.40001
1.40001
1.40001
1.40001
1.40001
1.40001
1.40001
1.40001
1.40001
1.40001
1.40001
1.40001
1.40001
1.40001
1.40001
1.40001
1.40001
1.40001
1.40001
1.40001
1.40001
1.40001
1.40001
1.40001
1.40001
1.40001
1.40001
1.40001
1.40001
1.40001
1.40001
1.40001
1.40001
1.40001
1.40001
1.40001
1.40001
1.40001
1.40001
1.40001
1.40001
1.40001
1.40001
1.40001
1.40001
1.40001
1.40001
1.40001
1.40001
1.40001
1.40001
1.40001
1.40001
1.40001
1.40001
1.40001
1.40001
1.40001
1.40001
1.40001
1.40001
1.40001
1.40001
1.40001
1.40001
1.40001
1.40001
1.40001
1.40001
1.40001
1.40001
1.40001
1.40001
1.40001
1.40001
1.40001
1.40001
1.40001
1.40001
1.40001
1.40001
1.40001
1.40001
1.40001
3.90189
5.46556
5.50162
5.5125
5.52379
5.52811
5.52705
5.51964
5.50898
5.50102
5.49912
5.50389
5.51786
5.53947
5.56486
5.58952
5.61072
5.62823
5.64323
5.6577
5.6716
5.68319
5.69215
5.69928
5.70255
5.70175
5.69874
5.69608
5.69736
5.70335
5.71178
5.72308
5.73766
5.7535
5.7669
5.77643
5.78246
5.783
5.77873
5.77575
5.77822
5.78849
5.80361
5.81868
5.83076
5.83977
5.84645
5.85123
5.85543
5.86041
5.86539
5.8697
5.87228
5.87327
5.87434
5.8768
5.88133
5.88632
5.88908
5.88791
5.8822
5.87397
5.86708
5.86407
5.86604
5.87218
5.88017
5.88876
5.89694
5.90431
5.90863
5.90894
5.90598
5.89992
5.89305
5.88852
5.88794
5.89055
5.89282
5.88826
5.86789
5.82109
5.74373
5.64839
5.56323
5.51365
5.49905
1.40001
1.40001
1.40001
1.40001
1.40001
1.40001
1.40001
1.40001
1.40001
1.40001
1.40001
1.40001
1.40001
1.40001
1.40001
1.40001
1.40001
1.40001
1.40001
1.40001
1.40001
1.40001
1.40001
1.40001
1.40001
1.40001
1.40001
1.40001
1.40001
1.40001
1.40001
1.40001
1.40001
1.40001
1.40001
1.40001
1.40001
1.40001
1.40001
1.40001
1.40001
1.40001
1.40001
1.40001
1.40001
1.40001
1.40001
1.40001
1.40001
1.40001
1.40001
1.40001
1.40001
1.40001
1.40001
1.40001
1.40001
1.40001
1.40001
1.40001
1.40001
1.40001
1.40001
1.40001
1.40001
1.40001
1.40001
1.40001
1.40001
1.40001
1.40001
1.40001
1.40001
1.40001
1.40001
1.40001
1.40001
1.40001
1.40001
1.40001
1.40001
1.40001
1.40001
1.40001
1.40001
1.40001
1.40001
1.40001
1.40001
1.40001
1.40001
1.40001
1.40001
1.40001
1.40001
1.40001
1.40001
1.40001
1.40001
1.40001
1.40001
1.40001
1.40001
1.40001
1.40001
3.80676
5.45027
5.4989
5.50989
5.52121
5.5253
5.52375
5.51602
5.50577
5.49909
5.49786
5.50257
5.51674
5.53865
5.56441
5.58984
5.6117
5.6296
5.64402
5.65714
5.66936
5.67996
5.68859
5.69584
5.69974
5.70007
5.69797
5.69564
5.69727
5.70331
5.71172
5.72333
5.73801
5.75326
5.76587
5.77496
5.78023
5.77983
5.77482
5.77166
5.77484
5.78587
5.80151
5.81734
5.83027
5.83968
5.84646
5.85116
5.85525
5.85985
5.86399
5.8673
5.86897
5.86937
5.87065
5.87392
5.87945
5.8854
5.88854
5.88718
5.88136
5.87309
5.86614
5.86298
5.86432
5.86957
5.87705
5.88542
5.89365
5.90139
5.90655
5.90797
5.90592
5.90043
5.89332
5.88771
5.88571
5.88699
5.88829
5.88355
5.86365
5.81747
5.74032
5.64473
5.55922
5.50903
5.49482
1.40001
1.40001
1.40001
1.40001
1.40001
1.40001
1.40001
1.40001
1.40001
1.40001
1.40001
1.40001
1.40001
1.40001
1.40001
1.40001
1.40001
1.40001
1.40001
1.40001
1.40001
1.40001
1.40001
1.40001
1.40001
1.40001
1.40001
1.40001
1.40001
1.40001
1.40001
1.40001
1.40001
1.40001
1.40001
1.40001
1.40001
1.40001
1.40001
1.40001
1.40001
1.40001
1.40001
1.40001
1.40001
1.40001
1.40001
1.40001
1.40001
1.40001
1.40001
1.40001
1.40001
1.40001
1.40001
1.40001
1.40001
1.40001
1.40001
1.40001
1.40001
1.40001
1.40001
1.40001
1.40001
1.40001
1.40001
1.40001
1.40001
1.40001
1.40001
1.40001
1.40001
1.40001
1.40001
1.40001
1.40001
1.40001
1.40001
1.40001
1.40001
1.40001
1.40001
1.40001
1.40001
1.40001
1.40001
1.40001
1.40001
1.40001
1.40001
1.40001
1.40001
1.40001
1.40001
1.40001
1.40001
1.40001
1.40001
1.40001
1.40001
1.40001
1.40001
1.40001
1.40001
3.70325
5.4342
5.49537
5.50645
5.51784
5.52167
5.5197
5.51195
5.50265
5.49752
5.49667
5.50165
5.51608
5.53822
5.56436
5.59072
5.61282
5.63067
5.64433
5.65604
5.66667
5.67639
5.68488
5.69234
5.69688
5.69812
5.69663
5.69458
5.69668
5.70307
5.71182
5.72399
5.73887
5.75342
5.76494
5.77319
5.77772
5.77649
5.77125
5.76829
5.7725
5.78403
5.79945
5.81507
5.82852
5.83853
5.84573
5.85074
5.85489
5.85905
5.86234
5.86472
5.86574
5.86611
5.86799
5.87212
5.87799
5.88395
5.88693
5.88521
5.8794
5.87182
5.86558
5.86272
5.86376
5.86798
5.87458
5.88245
5.89041
5.89782
5.9032
5.90527
5.90415
5.89985
5.89352
5.88784
5.88472
5.88424
5.88374
5.87803
5.85829
5.81292
5.73661
5.64122
5.55536
5.50417
5.48992
1.40001
1.40001
1.40001
1.40001
1.40001
1.40001
1.40001
1.40001
1.40001
1.40001
1.40001
1.40001
1.40001
1.40001
1.40001
1.40001
1.40001
1.40001
1.40001
1.40001
1.40001
1.40001
1.40001
1.40001
1.40001
1.40001
1.40001
1.40001
1.40001
1.40001
1.40001
1.40001
1.40001
1.40001
1.40001
1.40001
1.40001
1.40001
1.40001
1.40001
1.40001
1.40001
1.40001
1.40001
1.40001
1.40001
1.40001
1.40001
1.40001
1.40001
1.40001
1.40001
1.40001
1.40001
1.40001
1.40001
1.40001
1.40001
1.40001
1.40001
1.40001
1.40001
1.40001
1.40001
1.40001
1.40001
1.40001
1.40001
1.40001
1.40001
1.40001
1.40001
1.40001
1.40001
1.40001
1.40001
1.40001
1.40001
1.40001
1.40001
1.40001
1.40001
1.40001
1.40001
1.40001
1.40001
1.40001
1.40001
1.40001
1.40001
1.40001
1.40001
1.40001
1.40001
1.40001
1.40001
1.40001
1.40001
1.40001
1.40001
1.40001
1.40001
1.40001
1.40001
1.40001
3.59065
5.41741
5.49071
5.50159
5.51329
5.51724
5.51544
5.50828
5.50048
5.49658
5.49561
5.501
5.51563
5.53824
5.56526
5.59245
5.61421
5.63121
5.64369
5.65411
5.66358
5.67277
5.68139
5.68914
5.694
5.6957
5.69463
5.69277
5.69542
5.70249
5.71193
5.72474
5.73983
5.75363
5.76383
5.77101
5.77467
5.77286
5.76801
5.76583
5.77123
5.78307
5.79788
5.81256
5.82572
5.83612
5.84395
5.84956
5.85398
5.85776
5.86035
5.86205
5.86276
5.86354
5.86635
5.87134
5.87718
5.88201
5.88399
5.88178
5.87614
5.86992
5.86517
5.8632
5.86429
5.86747
5.87313
5.88024
5.88751
5.89385
5.89852
5.90055
5.90026
5.89772
5.89332
5.88869
5.88499
5.88248
5.87955
5.87222
5.85209
5.80751
5.73236
5.63753
5.55147
5.49923
5.48463
1.40001
1.40001
1.40001
1.40001
1.40001
1.40001
1.40001
1.40001
1.40001
1.40001
1.40001
1.40001
1.40001
1.40001
1.40001
1.40001
1.40001
1.40001
1.40001
1.40001
1.40001
1.40001
1.40001
1.40001
1.40001
1.40001
1.40001
1.40001
1.40001
1.40001
1.40001
1.40001
1.40001
1.40001
1.40001
1.40001
1.40001
1.40001
1.40001
1.40001
1.40001
1.40001
1.40001
1.40001
1.40001
1.40001
1.40001
1.40001
1.40001
1.40001
1.40001
1.40001
1.40001
1.40001
1.40001
1.40001
1.40001
1.40001
1.40001
1.40001
1.40001
1.40001
1.40001
1.40001
1.40001
1.40001
1.40001
1.40001
1.40001
1.40001
1.40001
1.40001
1.40001
1.40001
1.40001
1.40001
1.40001
1.40001
1.40001
1.40001
1.40001
1.40001
1.40001
1.40001
1.40001
1.40001
1.40001
1.40001
1.40001
1.40001
1.40001
1.40001
1.40001
1.40001
1.40001
1.40001
1.40001
1.40001
1.40001
1.40001
1.40001
1.40001
1.40001
1.40001
1.40001
3.46839
5.40015
5.48503
5.49549
5.50771
5.51232
5.51143
5.50555
5.49934
5.49631
5.49488
5.50055
5.51546
5.53902
5.56756
5.59486
5.61575
5.63091
5.64169
5.65107
5.65982
5.66899
5.67824
5.68641
5.69132
5.69294
5.69222
5.6905
5.6937
5.70179
5.71213
5.7255
5.74052
5.75345
5.76214
5.76814
5.77074
5.76861
5.76462
5.76389
5.77067
5.78279
5.79684
5.81025
5.82265
5.83301
5.84129
5.8475
5.85228
5.85576
5.85791
5.8593
5.86003
5.86145
5.8653
5.8712
5.87685
5.88003
5.88024
5.87712
5.87179
5.86724
5.86463
5.8642
5.86543
5.86789
5.87263
5.87869
5.88489
5.8899
5.89318
5.89447
5.89457
5.89382
5.89205
5.88931
5.88581
5.88156
5.87611
5.86672
5.84574
5.8016
5.72747
5.63332
5.5473
5.4943
5.47915
1.40001
1.40001
1.40001
1.40001
1.40001
1.40001
1.40001
1.40001
1.40001
1.40001
1.40001
1.40001
1.40001
1.40001
1.40001
1.40001
1.40001
1.40001
1.40001
1.40001
1.40001
1.40001
1.40001
1.40001
1.40001
1.40001
1.40001
1.40001
1.40001
1.40001
1.40001
1.40001
1.40001
1.40001
1.40001
1.40001
1.40001
1.40001
1.40001
1.40001
1.40001
1.40001
1.40001
1.40001
1.40001
1.40001
1.40001
1.40001
1.40001
1.40001
1.40001
1.40001
1.40001
1.40001
1.40001
1.40001
1.40001
1.40001
1.40001
1.40001
1.40001
1.40001
1.40001
1.40001
1.40001
1.40001
1.40001
1.40001
1.40001
1.40001
1.40001
1.40001
1.40001
1.40001
1.40001
1.40001
1.40001
1.40001
1.40001
1.40001
1.40001
1.40001
1.40001
1.40001
1.40001
1.40001
1.40001
1.40001
1.40001
1.40001
1.40001
1.40001
1.40001
1.40001
1.40001
1.40001
1.40001
1.40001
1.40001
1.40001
1.40001
1.40001
1.40001
1.40001
1.40001
3.33627
5.38259
5.47906
5.48919
5.5017
5.50746
5.50811
5.50373
5.49887
5.49631
5.49469
5.50064
5.51601
5.54088
5.57074
5.59726
5.61684
5.6295
5.63823
5.64634
5.65489
5.66475
5.67514
5.68399
5.68891
5.6901
5.68958
5.68808
5.69195
5.70136
5.71252
5.72629
5.74087
5.75268
5.75977
5.76456
5.76587
5.76349
5.76056
5.76188
5.77023
5.78279
5.79615
5.80829
5.81986
5.82991
5.83829
5.84481
5.84978
5.85302
5.85495
5.8563
5.85732
5.85942
5.86422
5.87096
5.87641
5.87824
5.87657
5.87204
5.86694
5.86394
5.86328
5.86469
5.86664
5.8688
5.87269
5.87777
5.88276
5.8863
5.8879
5.88807
5.88801
5.88841
5.88905
5.88874
5.88625
5.88106
5.87352
5.86206
5.83987
5.79561
5.72202
5.62841
5.5426
5.4893
5.47358
1.40001
1.40001
1.40001
1.40001
1.40001
1.40001
1.40001
1.40001
1.40001
1.40001
1.40001
1.40001
1.40001
1.40001
1.40001
1.40001
1.40001
1.40001
1.40001
1.40001
1.40001
1.40001
1.40001
1.40001
1.40001
1.40001
1.40001
1.40001
1.40001
1.40001
1.40001
1.40001
1.40001
1.40001
1.40001
1.40001
1.40001
1.40001
1.40001
1.40001
1.40001
1.40001
1.40001
1.40001
1.40001
1.40001
1.40001
1.40001
1.40001
1.40001
1.40001
1.40001
1.40001
1.40001
1.40001
1.40001
1.40001
1.40001
1.40001
1.40001
1.40001
1.40001
1.40001
1.40001
1.40001
1.40001
1.40001
1.40001
1.40001
1.40001
1.40001
1.40001
1.40001
1.40001
1.40001
1.40001
1.40001
1.40001
1.40001
1.40001
1.40001
1.40001
1.40001
1.40001
1.40001
1.40001
1.40001
1.40001
1.40001
1.40001
1.40001
1.40001
1.40001
1.40001
1.40001
1.40001
1.40001
1.40001
1.40001
1.40001
1.40001
1.40001
1.40001
1.40001
1.40001
3.19477
5.36078
5.47362
5.48329
5.49573
5.50292
5.50505
5.50239
5.49906
5.49678
5.49586
5.50207
5.51795
5.54401
5.57406
5.59945
5.61721
5.62713
5.63359
5.63992
5.64878
5.65982
5.67162
5.68138
5.68662
5.68736
5.68694
5.68599
5.69091
5.70166
5.71329
5.72722
5.74104
5.75137
5.75692
5.76048
5.76021
5.75754
5.75567
5.7592
5.76918
5.78235
5.79526
5.80667
5.81755
5.82726
5.83545
5.84187
5.84672
5.84972
5.85165
5.85316
5.85454
5.85714
5.86255
5.86998
5.87543
5.87647
5.87358
5.86787
5.86244
5.86012
5.86063
5.86374
5.86691
5.86939
5.87301
5.87745
5.88129
5.88327
5.88342
5.88234
5.88154
5.88219
5.8844
5.88613
5.885
5.8801
5.8715
5.85851
5.83505
5.79009
5.71631
5.6228
5.53718
5.48406
5.46785
1.40001
1.40001
1.40001
1.40001
1.40001
1.40001
1.40001
1.40001
1.40001
1.40001
1.40001
1.40001
1.40001
1.40001
1.40001
1.40001
1.40001
1.40001
1.40001
1.40001
1.40001
1.40001
1.40001
1.40001
1.40001
1.40001
1.40001
1.40001
1.40001
1.40001
1.40001
1.40001
1.40001
1.40001
1.40001
1.40001
1.40001
1.40001
1.40001
1.40001
1.40001
1.40001
1.40001
1.40001
1.40001
1.40001
1.40001
1.40001
1.40001
1.40001
1.40001
1.40001
1.40001
1.40001
1.40001
1.40001
1.40001
1.40001
1.40001
1.40001
1.40001
1.40001
1.40001
1.40001
1.40001
1.40001
1.40001
1.40001
1.40001
1.40001
1.40001
1.40001
1.40001
1.40001
1.40001
1.40001
1.40001
1.40001
1.40001
1.40001
1.40001
1.40001
1.40001
1.40001
1.40001
1.40001
1.40001
1.40001
1.40001
1.40001
1.40001
1.40001
1.40001
1.40001
1.40001
1.40001
1.40001
1.40001
1.40001
1.40001
1.40001
1.40001
1.40001
1.40001
1.40001
3.0472
5.32929
5.46987
5.47849
5.49092
5.49906
5.50247
5.50132
5.49968
5.49824
5.49881
5.50559
5.52185
5.54782
5.57701
5.60146
5.61704
5.62466
5.62858
5.63312
5.64231
5.65447
5.66747
5.67806
5.6839
5.68457
5.68438
5.68447
5.69086
5.70274
5.71448
5.72834
5.74118
5.74985
5.75405
5.75632
5.75447
5.75123
5.75026
5.75552
5.76696
5.78085
5.79378
5.80506
5.81567
5.82517
5.83297
5.83894
5.84337
5.84616
5.84831
5.8501
5.85173
5.85446
5.86002
5.86778
5.87351
5.87456
5.87149
5.86535
5.8591
5.85607
5.85637
5.86043
5.86519
5.86886
5.87317
5.87754
5.88053
5.88117
5.88007
5.87759
5.87583
5.87607
5.8786
5.88131
5.88159
5.87786
5.86955
5.85605
5.83161
5.78554
5.71076
5.6167
5.53101
5.47834
5.46178
1.40001
1.40001
1.40001
1.40001
1.40001
1.40001
1.40001
1.40001
1.40001
1.40001
1.40001
1.40001
1.40001
1.40001
1.40001
1.40001
1.40001
1.40001
1.40001
1.40001
1.40001
1.40001
1.40001
1.40001
1.40001
1.40001
1.40001
1.40001
1.40001
1.40001
1.40001
1.40001
1.40001
1.40001
1.40001
1.40001
1.40001
1.40001
1.40001
1.40001
1.40001
1.40001
1.40001
1.40001
1.40001
1.40001
1.40001
1.40001
1.40001
1.40001
1.40001
1.40001
1.40001
1.40001
1.40001
1.40001
1.40001
1.40001
1.40001
1.40001
1.40001
1.40001
1.40001
1.40001
1.40001
1.40001
1.40001
1.40001
1.40001
1.40001
1.40001
1.40001
1.40001
1.40001
1.40001
1.40001
1.40001
1.40001
1.40001
1.40001
1.40001
1.40001
1.40001
1.40001
1.40001
1.40001
1.40001
1.40001
1.40001
1.40001
1.40001
1.40001
1.40001
1.40001
1.40001
1.40001
1.40001
1.40001
1.40001
1.40001
1.40001
1.40001
1.40001
1.40001
1.40001
2.89683
5.284
5.46514
5.47294
5.4863
5.49554
5.50016
5.50078
5.50111
5.50082
5.50305
5.51081
5.52735
5.55107
5.57843
5.60234
5.61638
5.62198
5.62373
5.62703
5.63636
5.64926
5.66281
5.67379
5.68027
5.68148
5.68192
5.68372
5.6918
5.70423
5.71603
5.7295
5.74121
5.74844
5.7517
5.7527
5.74935
5.74539
5.74477
5.75098
5.76336
5.7779
5.79131
5.80307
5.81389
5.82343
5.83079
5.8361
5.83992
5.84251
5.84508
5.84731
5.84903
5.85156
5.85676
5.86432
5.8705
5.87235
5.87014
5.86439
5.8571
5.85215
5.85088
5.85456
5.86078
5.86663
5.87269
5.87779
5.8805
5.88006
5.87777
5.87406
5.87124
5.8705
5.87215
5.87485
5.87601
5.87375
5.86703
5.85426
5.82946
5.78216
5.70574
5.61042
5.52421
5.47191
5.45511
1.40001
1.40001
1.40001
1.40001
1.40001
1.40001
1.40001
1.40001
1.40001
1.40001
1.40001
1.40001
1.40001
1.40001
1.40001
1.40001
1.40001
1.40001
1.40001
1.40001
1.40001
1.40001
1.40001
1.40001
1.40001
1.40001
1.40001
1.40001
1.40001
1.40001
1.40001
1.40001
1.40001
1.40001
1.40001
1.40001
1.40001
1.40001
1.40001
1.40001
1.40001
1.40001
1.40001
1.40001
1.40001
1.40001
1.40001
1.40001
1.40001
1.40001
1.40001
1.40001
1.40001
1.40001
1.40001
1.40001
1.40001
1.40001
1.40001
1.40001
1.40001
1.40001
1.40001
1.40001
1.40001
1.40001
1.40001
1.40001
1.40001
1.40001
1.40001
1.40001
1.40001
1.40001
1.40001
1.40001
1.40001
1.40001
1.40001
1.40001
1.40001
1.40001
1.40001
1.40001
1.40001
1.40001
1.40001
1.40001
1.40001
1.40001
1.40001
1.40001
1.40001
1.40001
1.40001
1.40001
1.40001
1.40001
1.40001
1.40001
1.40001
1.40001
1.40001
1.40001
1.40001
2.74613
5.22362
5.45576
5.46644
5.48209
5.49336
5.49929
5.50123
5.50293
5.50383
5.50752
5.51721
5.53277
5.55317
5.57915
5.6021
5.61465
5.61825
5.61866
5.62174
5.63139
5.64469
5.6581
5.66874
5.67552
5.67776
5.67941
5.68332
5.69315
5.70554
5.7174
5.73017
5.74092
5.74701
5.74986
5.74994
5.74547
5.74063
5.73982
5.74627
5.75891
5.77371
5.78765
5.8003
5.81181
5.82159
5.82866
5.83333
5.83652
5.83895
5.84205
5.84484
5.84664
5.8488
5.85314
5.8599
5.86641
5.86959
5.869
5.86433
5.85615
5.84871
5.84492
5.84683
5.85371
5.86221
5.87109
5.87797
5.881
5.87974
5.87623
5.87147
5.86749
5.86547
5.86566
5.86736
5.86871
5.86795
5.86357
5.85263
5.82825
5.77988
5.70153
5.60442
5.51714
5.46488
5.44788
1.40001
1.40001
1.40001
1.40001
1.40001
1.40001
1.40001
1.40001
1.40001
1.40001
1.40001
1.40001
1.40001
1.40001
1.40001
1.40001
1.40001
1.40001
1.40001
1.40001
1.40001
1.40001
1.40001
1.40001
1.40001
1.40001
1.40001
1.40001
1.40001
1.40001
1.40001
1.40001
1.40001
1.40001
1.40001
1.40001
1.40001