/*--------------------------------*- C++ -*----------------------------------*\
  =========                 |
  \\      /  F ield         | OpenFOAM: The Open Source CFD Toolbox
   \\    /   O peration     | Website:  https://openfoam.org
    \\  /    A nd           | Version:  7
     \\/     M anipulation  |
\*---------------------------------------------------------------------------*/
FoamFile
{
    version     2.0;
    format      ascii;
    class       volScalarField;
    location    "3";
    object      rho;
}
// * * * * * * * * * * * * * * * * * * * * * * * * * * * * * * * * * * * * * //

dimensions      [1 -3 0 0 0 0 0];

internalField   nonuniform List<scalar> 
4032
(
1.40001
1.40001
1.40001
1.40001
1.40001
1.40001
1.40001
1.40001
1.40001
1.40001
1.40001
1.4571
4.11996
5.44417
5.51071
5.58836
5.65958
5.72432
5.78075
5.8295
5.87295
5.90944
5.93913
5.96145
1.40001
1.40001
1.40001
1.40001
1.40001
1.40001
1.40001
1.40001
1.40001
1.40001
1.40001
1.4275
4.05795
5.43315
5.50063
5.57784
5.64909
5.71295
5.76786
5.8143
5.85501
5.88864
5.91538
5.93593
1.40001
1.40001
1.40001
1.40001
1.40001
1.40001
1.40001
1.40001
1.40001
1.40001
1.40001
1.40175
3.92183
5.41617
5.48405
5.55872
5.62886
5.69094
5.74394
5.78819
5.82685
5.85898
5.88383
5.90476
1.40001
1.40001
1.40001
1.40001
1.40001
1.40001
1.40001
1.40001
1.40001
1.40001
1.40001
1.40002
3.70514
5.37719
5.45649
5.52782
5.59727
5.65778
5.70935
5.75185
5.78794
5.81559
5.83359
5.84721
1.40001
1.40001
1.40001
1.40001
1.40001
1.40001
1.40001
1.40001
1.40001
1.40001
1.40001
1.40001
3.41584
5.31504
5.42338
5.48997
5.55651
5.61215
5.658
5.69328
5.72163
5.7443
5.75942
5.78002
1.40001
1.40001
1.40001
1.40001
1.40001
1.40001
1.40001
1.40001
1.40001
1.40001
1.40001
1.40001
3.05917
5.22038
5.39163
5.44978
5.50835
5.55529
5.59356
5.62268
5.64603
5.66557
5.67279
5.66271
1.40001
1.40001
1.40001
1.40001
1.40001
1.40001
1.40001
1.40001
1.40001
1.40001
1.40001
1.40001
2.64915
5.08613
5.38839
5.42779
5.4716
5.50351
5.52476
5.53656
5.53736
5.52016
5.49776
5.48666
1.40001
1.40001
1.40001
1.40001
1.40001
1.40001
1.40001
1.40001
1.40001
1.40001
1.40001
1.40001
2.18008
4.88903
5.40919
5.41401
5.43837
5.45265
5.4531
5.44439
5.41823
5.37893
5.31796
5.28496
1.40001
1.40001
1.40001
1.40001
1.40001
1.40001
1.40001
1.40001
1.40001
1.40001
1.40001
1.40001
1.6908
4.60797
5.45038
5.39823
5.4047
5.3964
5.37253
5.33992
5.27378
5.16408
4.84865
3.99687
1.40001
1.40001
1.40001
1.40001
1.40001
1.40001
1.40001
1.40001
1.40001
1.40001
1.40001
1.40001
1.42109
4.03222
5.33582
5.3087
5.32974
5.31811
5.2815
5.22465
5.11704
4.92446
4.59284
3.69279
1.40001
1.40001
1.40001
1.40001
1.40001
1.40001
1.40001
1.40001
1.40001
1.40001
1.40001
1.40001
1.4
3.24754
5.11685
5.27356
5.29007
5.26106
5.20593
5.11768
4.97788
4.73766
4.38593
3.56059
1.40001
1.40001
1.40001
1.40001
1.40001
1.40001
1.40001
1.40001
1.40001
1.40001
1.40001
1.40001
1.4
2.4185
4.8645
5.23397
5.2183
5.19206
5.13248
5.01982
4.85312
4.60549
4.21059
3.54223
1.40001
1.40001
1.40001
1.40001
1.40001
1.40001
1.40001
1.40001
1.40001
1.40001
1.40001
1.40001
1.4
1.65208
4.5226
5.28699
5.1802
5.11773
5.04282
4.92137
4.74419
4.50255
4.09947
3.57926
1.40001
1.40001
1.40001
1.40001
1.40001
1.40001
1.40001
1.40001
1.40001
1.40001
1.40001
1.40001
1.4
1.41091
3.71618
5.0285
5.03901
5.02112
4.94941
4.82828
4.65905
4.40801
4.04573
3.627
1.40001
1.40001
1.40001
1.40001
1.40001
1.40001
1.40001
1.40001
1.40001
1.40001
1.40001
1.40001
1.40001
1.39989
2.60192
4.79835
5.02434
4.9871
4.89863
4.7659
4.59768
4.34741
4.03633
3.68725
1.40001
1.40001
1.40001
1.40001
1.40001
1.40001
1.40001
1.40001
1.40001
1.40001
1.40001
1.40001
1.40001
1.39998
1.65403
4.35709
5.06123
4.96185
4.84733
4.70178
4.5339
4.2995
4.03069
3.72959
1.40001
1.40001
1.40001
1.40001
1.40001
1.40001
1.40001
1.40001
1.40001
1.40001
1.40001
1.40001
1.40001
1.4
1.40858
3.31952
4.89948
4.88344
4.79168
4.65863
4.48795
4.27279
4.03366
3.76691
1.40001
1.40001
1.40001
1.40001
1.40001
1.40001
1.40001
1.40001
1.40001
1.40001
1.40001
1.40001
1.40001
1.4
1.39995
1.9994
4.66621
4.93263
4.7985
4.65049
4.46697
4.25694
4.03346
3.79074
1.40001
1.40001
1.40001
1.40001
1.40001
1.40001
1.40001
1.40001
1.40001
1.40001
1.40001
1.40001
1.40001
1.40001
1.39999
1.4539
3.7175
4.85735
4.76472
4.62896
4.45335
4.25175
4.03976
3.81717
1.40001
1.40001
1.40001
1.40001
1.40001
1.40001
1.40001
1.40001
1.40001
1.40001
1.40001
1.40001
1.40001
1.40001
1.4
1.40019
2.26228
4.62161
4.78541
4.64488
4.4712
4.27659
4.0747
3.86461
1.40001
1.40001
1.40001
1.40001
1.40001
1.40001
1.40001
1.40001
1.40001
1.40001
1.40001
1.40001
1.40001
1.40001
1.4
1.4
1.50812
3.73119
4.76006
4.64084
4.47851
4.29808
4.10641
3.90623
1.40001
1.40001
1.40001
1.40001
1.40001
1.40001
1.40001
1.40001
1.40001
1.40001
1.40001
1.40001
1.40001
1.40001
1.40001
1.4
1.40121
2.2311
4.45338
4.66115
4.5027
4.33295
4.14807
3.95637
1.40001
1.40001
1.40001
1.40001
1.40001
1.40001
1.40001
1.40001
1.40001
1.40001
1.40001
1.40001
1.40001
1.40001
1.40001
1.40001
1.40001
1.49718
3.49309
4.63922
4.51778
4.35204
4.17514
3.99589
1.40001
1.40001
1.40001
1.40001
1.40001
1.40001
1.40001
1.40001
1.40001
1.40001
1.40001
1.40001
1.40001
1.40001
1.40001
1.40001
1.40001
1.40119
2.06398
4.19642
4.53721
4.37055
4.21054
4.04413
1.40001
1.40001
1.40001
1.40001
1.40001
1.40001
1.40001
1.40001
1.40001
1.40001
1.40001
1.40001
1.40001
1.40001
1.40001
1.40001
1.40001
1.40001
1.45819
2.98296
4.45633
4.4116
4.25984
4.09922
1.40001
1.40001
1.40001
1.40001
1.40001
1.40001
1.40001
1.40001
1.40001
1.40001
1.40001
1.40001
1.40001
1.40001
1.40001
1.40001
1.40001
1.40001
1.40072
1.76574
3.76718
4.47395
4.32376
4.15736
1.40001
1.40001
1.40001
1.40001
1.40001
1.40001
1.40001
1.40001
1.40001
1.40001
1.40001
1.40001
1.40001
1.40001
1.40001
1.40001
1.40001
1.40001
1.40001
1.41742
2.35434
4.15135
4.36783
4.21255
1.40001
1.40001
1.40001
1.40001
1.40001
1.40001
1.40001
1.40001
1.40001
1.40001
1.40001
1.40001
1.40001
1.40001
1.40001
1.40001
1.40001
1.40001
1.40001
1.40017
1.52073
3.04637
4.28314
4.26778
1.40001
1.40001
1.40001
1.40001
1.40001
1.40001
1.40001
1.40001
1.40001
1.40001
1.40001
1.40001
1.40001
1.40001
1.40001
1.40001
1.40001
1.40001
1.40001
1.40001
1.40267
1.79715
3.58506
4.27904
1.40001
1.40001
1.40001
1.40001
1.40001
1.40001
1.40001
1.40001
1.40001
1.40001
1.40001
1.40001
1.40001
1.40001
1.40001
1.40001
1.40001
1.40001
1.40001
1.40001
1.40002
1.4214
2.20178
3.89031
1.40001
1.40001
1.40001
1.40001
1.40001
1.40001
1.40001
1.40001
1.40001
1.40001
1.40001
1.40001
1.40001
1.40001
1.40001
1.40001
1.40001
1.40001
1.40001
1.40001
1.40001
1.40025
1.48437
2.63581
1.40001
1.40001
1.40001
1.40001
1.40001
1.40001
1.40001
1.40001
1.40001
1.40001
1.40001
1.40001
1.40001
1.40001
1.40001
1.40001
1.40001
1.40001
1.40001
1.40001
1.40001
1.40001
1.40171
1.61022
1.40001
1.40001
1.40001
1.40001
1.40001
1.40001
1.40001
1.40001
1.40001
1.40001
1.40001
1.40001
1.40001
1.40001
1.40001
1.40001
1.40001
1.40001
1.40001
1.40001
1.40001
1.40001
1.40001
1.40737
1.40001
1.40001
1.40001
1.40001
1.40001
1.40001
1.40001
1.40001
1.40001
1.40001
1.40001
1.40001
1.40001
1.40001
1.40001
1.40001
1.40001
1.40001
1.40001
1.40001
1.40001
1.40001
1.40001
1.40006
1.40001
1.40001
1.40001
1.40001
1.40001
1.40001
1.40001
1.40001
1.40001
1.40001
1.40001
1.40001
1.40001
1.40001
1.40001
1.40001
1.40001
1.40001
1.40001
1.40001
1.40001
1.40001
1.40001
1.40001
1.40001
1.40001
1.40001
1.40001
1.40001
1.40001
1.40001
1.40001
1.40001
1.40001
1.40001
1.40001
1.40001
1.40001
1.40001
1.40001
1.40001
1.40001
1.40001
1.40001
1.40001
1.40001
1.40001
1.40001
1.40001
1.40001
1.40001
1.40001
1.40001
1.40001
1.40001
1.40001
1.40001
1.40001
1.40001
1.40001
1.40001
1.40001
1.40001
1.40001
1.40001
1.40001
1.40001
1.40001
1.40001
1.40001
1.40001
1.40001
1.40001
1.40001
1.40001
1.40001
1.40001
1.40001
1.40001
1.40001
1.40001
1.40001
1.40001
1.40001
1.40001
1.40001
1.40001
1.40001
1.40001
1.40001
1.40001
1.40001
1.40001
1.40001
1.40001
1.40001
1.40001
1.40001
1.40001
1.40001
1.40001
1.40001
1.40001
1.40001
1.40001
1.40001
1.40001
1.40001
1.40001
1.40001
1.40001
1.40001
1.40001
1.40001
1.40001
1.40001
1.40001
1.40001
1.40001
1.40001
1.40001
1.40001
1.40001
1.40001
1.40001
1.40001
1.40001
1.40001
1.40001
1.40001
1.40001
1.40001
1.40001
1.40001
1.40001
1.40001
1.40001
1.40001
1.40001
1.40001
1.40001
1.40001
1.40001
1.40001
1.2997
0.558618
0.238622
0.175012
0.204496
0.27819
0.362119
0.475412
0.619042
0.705652
0.795978
0.887384
0.908912
0.921495
0.94891
0.985735
1.02045
1.04021
1.06056
1.068
1.05996
1.04065
1.03346
1.04004
1.05659
1.08129
1.09125
1.0912
1.08878
1.08937
1.09292
1.09788
1.30683
2.60064
3.11697
3.12506
3.13854
3.16135
3.17342
3.16436
3.13579
3.09777
3.06702
3.0441
3.02166
2.99253
2.95453
2.91222
2.87232
2.84006
2.81744
2.79883
2.76957
2.73023
2.68943
2.65008
2.61812
2.59238
2.57667
2.5643
2.542
2.5108
2.47554
2.4354
2.39695
2.36608
2.34154
2.32103
2.30595
2.28754
2.26275
2.23024
2.18273
2.13229
2.09837
2.07751
2.06142
2.05273
2.05116
2.03934
2.02115
2.00158
1.97461
1.93414
1.88477
1.84599
1.82698
1.81382
1.80129
1.7902
1.77811
1.76343
1.74678
1.72113
1.6808
1.63174
1.97351
1.24058
0.893125
0.6336
0.573443
0.590164
0.579282
0.557585
0.559448
0.582357
0.630748
0.715525
0.803268
0.853644
0.886043
0.928104
0.983864
1.02115
1.04868
1.07333
1.07749
1.07475
1.06378
1.06375
1.0725
1.09351
1.11372
1.11833
1.11686
1.10473
1.09859
1.10341
1.24092
2.65087
3.27694
3.24927
3.19809
3.2099
3.2174
3.20686
3.1706
3.12582
3.08773
3.06248
3.0455
3.02709
2.99769
2.95604
2.91081
2.86856
2.83402
2.81021
2.78972
2.76205
2.72917
2.69379
2.65504
2.62045
2.59213
2.56461
2.53636
2.50735
2.47674
2.4461
2.41472
2.38026
2.34711
2.32102
2.29812
2.27662
2.25644
2.23103
2.19884
2.16361
2.12637
2.09418
2.07391
2.05955
2.04786
2.03354
2.01474
1.99358
1.96965
1.9385
1.89955
1.85815
1.83018
1.81496
1.80179
1.78923
1.77734
1.76363
1.74792
1.72517
1.69284
1.64244
2.50227
1.80308
1.41349
1.12
0.92652
0.853165
0.799784
0.694377
0.652654
0.658738
0.665912
0.705475
0.773993
0.834504
0.867184
0.896065
0.954071
1.01287
1.05885
1.10148
1.13429
1.14392
1.14005
1.13268
1.13393
1.14223
1.1563
1.16271
1.16234
1.1555
1.15453
1.21357
1.50326
2.48174
3.41687
3.46862
3.39254
3.36957
3.35263
3.34341
3.30405
3.26313
3.21528
3.17049
3.13433
3.10384
3.07559
3.04259
3.00279
2.95566
2.9038
2.86158
2.82871
2.80062
2.77355
2.74869
2.72348
2.69243
2.65131
2.60266
2.56017
2.52588
2.49705
2.47223
2.44817
2.42229
2.38964
2.34736
2.30575
2.27574
2.249
2.22638
2.21079
2.1938
2.17362
2.14598
2.10813
2.07518
2.05542
2.03658
2.0153
1.99154
1.9653
1.94062
1.9167
1.88662
1.8484
1.82146
1.80747
1.79523
1.7821
1.76691
1.74842
1.72612
1.70392
1.66315
2.81898
2.25567
1.85903
1.5576
1.31253
1.16067
1.05576
0.940719
0.885865
0.85607
0.810969
0.767387
0.770029
0.785641
0.798615
0.813309
0.858622
0.932829
0.997436
1.05429
1.09723
1.12167
1.15285
1.16896
1.18051
1.19087
1.20199
1.21132
1.21081
1.21206
1.26493
1.56581
1.99605
2.26318
2.92853
3.40584
3.54269
3.55996
3.5014
3.46146
3.40929
3.37125
3.33193
3.28137
3.23175
3.19358
3.15969
3.12848
3.0917
3.05081
2.99915
2.94183
2.89773
2.86441
2.83512
2.80956
2.78479
2.75541
2.7185
2.66571
2.60511
2.56281
2.53467
2.50862
2.48372
2.45977
2.43375
2.3979
2.34612
2.29795
2.26965
2.25046
2.23511
2.22365
2.21101
2.19147
2.16277
2.11918
2.07765
2.04915
2.02421
1.99821
1.97431
1.9562
1.93875
1.91824
1.88846
1.84788
1.81912
1.80552
1.79244
1.7766
1.75757
1.73693
1.72032
1.68879
3.0415
2.5799
2.2182
1.89008
1.65021
1.47915
1.32028
1.16654
1.07545
1.0137
0.960522
0.897541
0.833955
0.819673
0.821649
0.829964
0.832527
0.842734
0.868211
0.90998
0.968829
1.03221
1.09909
1.14681
1.16944
1.17779
1.19532
1.20478
1.21897
1.29525
1.59361
2.01854
2.32317
2.32192
2.42611
2.84919
3.28342
3.53685
3.56875
3.54479
3.49935
3.44842
3.40693
3.35294
3.29818
3.26205
3.22546
3.19363
3.16019
3.12445
3.08382
3.02942
2.96842
2.92464
2.89353
2.86461
2.83652
2.80633
2.7723
2.72666
2.66391
2.60766
2.57443
2.54823
2.52286
2.49659
2.4686
2.43528
2.38783
2.33257
2.30151
2.28389
2.26856
2.25727
2.24428
2.22546
2.20284
2.16732
2.11452
2.06833
2.03853
2.01487
1.99479
1.97797
1.96169
1.94484
1.92513
1.89533
1.85479
1.82346
1.805
1.78809
1.77047
1.75352
1.74139
1.71558
3.18997
2.8034
2.4779
2.17034
1.91305
1.7268
1.55939
1.40212
1.28926
1.18953
1.12349
1.07689
1.00504
0.932464
0.914908
0.907229
0.885934
0.865601
0.849782
0.851108
0.863122
0.894547
0.949285
1.02921
1.09745
1.12756
1.16425
1.17722
1.23429
1.57931
2.01443
2.24681
2.37375
2.36563
2.34158
2.39922
2.67882
3.1673
3.45121
3.50745
3.53603
3.4931
3.45046
3.38507
3.31387
3.26607
3.2313
3.2068
3.18633
3.15532
3.12025
3.07437
3.00843
2.95034
2.91515
2.88472
2.85794
2.83083
2.80084
2.76549
2.71684
2.65648
2.60679
2.57475
2.54867
2.52363
2.49777
2.4693
2.43376
2.3858
2.33713
2.31007
2.29221
2.27768
2.26538
2.2493
2.22875
2.20136
2.15948
2.10439
2.06032
2.03504
2.01617
1.99871
1.98204
1.96615
1.95042
1.93116
1.89872
1.853
1.81942
1.80028
1.78677
1.77513
1.76511
1.74142
3.31424
2.98274
2.67795
2.38274
2.14386
1.9422
1.76067
1.6067
1.49093
1.37299
1.27021
1.21894
1.1705
1.09858
1.01066
0.971095
0.946582
0.918627
0.893636
0.871681
0.867857
0.870715
0.880529
0.908249
0.955922
1.00645
1.06234
1.13989
1.44682
1.94767
2.18897
2.27713
2.33527
2.35242
2.34334
2.32394
2.34695
2.55274
3.00067
3.30585
3.47017
3.50241
3.46639
3.40646
3.33588
3.27145
3.22933
3.20269
3.18717
3.16253
3.12986
3.09296
3.03937
2.9732
2.92404
2.88989
2.861
2.83649
2.8102
2.78024
2.74432
2.69817
2.64439
2.59748
2.56363
2.53707
2.51287
2.48848
2.46181
2.42781
2.38073
2.33369
2.30761
2.28947
2.2741
2.25911
2.24028
2.21797
2.18926
2.14692
2.09354
2.05335
2.0318
2.01554
1.99976
1.98455
1.96924
1.95268
1.92687
1.88105
1.83474
1.81298
1.80108
1.79061
1.78414
1.76209
3.40924
3.11763
2.82903
2.55628
2.3382
2.14045
1.93658
1.78479
1.66549
1.55319
1.43165
1.34824
1.29283
1.23488
1.16991
1.09301
1.04045
1.01342
0.991124
0.965209
0.935313
0.90239
0.892382
0.896091
0.897492
0.908388
0.952581
1.22067
1.7459
1.9979
2.12371
2.16823
2.21502
2.27105
2.2949
2.30327
2.2905
2.29065
2.43644
2.81591
3.21314
3.42905
3.44419
3.4077
3.35893
3.30975
3.25169
3.21245
3.18236
3.15388
3.12529
3.09465
3.05688
3.00634
2.95114
2.90169
2.86159
2.83017
2.8032
2.77818
2.75121
2.7204
2.68281
2.63587
2.58415
2.54286
2.51553
2.49312
2.47144
2.4484
2.41767
2.37309
2.32432
2.29132
2.2697
2.25283
2.23838
2.22228
2.20316
2.17613
2.13531
2.08776
2.0526
2.02789
2.01075
1.99795
1.98512
1.96662
1.94107
1.90376
1.86224
1.8314
1.81386
1.80158
1.79464
1.77594
3.48559
3.21925
2.95793
2.71022
2.49387
2.2937
2.10079
1.95329
1.82429
1.69235
1.57462
1.49572
1.41735
1.33611
1.28448
1.22819
1.15789
1.09386
1.06314
1.0431
1.02128
0.990424
0.941844
0.910665
0.907372
0.930992
1.12141
1.57626
1.83728
1.8913
1.91753
1.96555
2.03316
2.1039
2.15457
2.19809
2.22052
2.2285
2.25557
2.35674
2.65385
3.07838
3.29033
3.37242
3.37698
3.34901
3.30829
3.24882
3.18905
3.14342
3.11302
3.08574
3.06026
3.03047
2.99405
2.94452
2.88441
2.83312
2.7979
2.7707
2.74765
2.72538
2.70105
2.66851
2.62072
2.56417
2.52134
2.49468
2.47304
2.4528
2.4317
2.40228
2.35476
2.30424
2.27383
2.25302
2.23459
2.21769
2.20128
2.18448
2.16223
2.12626
2.07811
2.04041
2.01781
1.99752
1.9755
1.95348
1.93197
1.91171
1.88955
1.8639
1.83674
1.81718
1.80811
1.78862
3.53984
3.29999
3.05988
2.82799
2.62818
2.43548
2.24705
2.09128
1.95959
1.83244
1.71679
1.62683
1.53672
1.44609
1.38382
1.33628
1.28428
1.2153
1.1416
1.11258
1.10591
1.08668
1.03542
0.982106
0.991778
1.14627
1.53828
1.86487
1.89608
1.8792
1.85742
1.8554
1.85917
1.87805
1.91324
1.96303
2.03284
2.10196
2.15639
2.17942
2.23775
2.4605
2.83613
3.16002
3.29579
3.37058
3.34671
3.29359
3.22603
3.14647
3.10728
3.08142
3.063
3.0458
3.02047
2.98694
2.93283
2.85988
2.80353
2.76917
2.74359
2.72227
2.70176
2.67964
2.64968
2.60091
2.54086
2.49989
2.47586
2.45513
2.43509
2.41271
2.38196
2.33584
2.28595
2.25301
2.23223
2.21568
2.20082
2.18594
2.16998
2.14679
2.10526
2.05477
2.01916
1.99439
1.97211
1.94942
1.92958
1.91488
1.90167
1.88708
1.86711
1.84124
1.82078
1.78672
3.59112
3.3703
3.14843
2.93916
2.7455
2.5478
2.37204
2.23185
2.0946
1.94849
1.84152
1.75048
1.65907
1.56677
1.4894
1.4218
1.37175
1.32874
1.27901
1.20944
1.15434
1.13031
1.1023
1.10542
1.24896
1.62123
1.94535
1.99974
1.95843
1.91427
1.88734
1.86602
1.8469
1.83879
1.83349
1.83145
1.84933
1.89491
1.94105
1.98217
2.0096
2.05486
2.21814
2.58908
2.97853
3.22529
3.30777
3.30738
3.25896
3.17752
3.1113
3.08127
3.06202
3.04916
3.02978
3.00357
2.96721
2.9045
2.82421
2.77133
2.74337
2.72206
2.7035
2.68318
2.66048
2.62858
2.57687
2.51792
2.48054
2.45761
2.43757
2.41801
2.39576
2.36446
2.31686
2.26712
2.23599
2.21637
2.20043
2.18587
2.17076
2.15201
2.12101
2.07313
2.02496
1.99224
1.96898
1.95051
1.93641
1.92419
1.91207
1.89965
1.88499
1.86119
1.83015
1.78171
3.65076
3.43744
3.22758
3.0304
2.84257
2.65714
2.4914
2.34447
2.20556
2.06829
1.96406
1.8668
1.76087
1.66637
1.60387
1.53693
1.44297
1.39572
1.37274
1.32405
1.24533
1.19375
1.20373
1.35017
1.75436
2.07718
2.1318
2.08574
2.04058
2.01339
1.98864
1.95488
1.91243
1.86271
1.83215
1.81849
1.8182
1.82195
1.8271
1.83079
1.83168
1.83723
1.85844
1.96284
2.27694
2.69902
3.06695
3.2194
3.24761
3.22173
3.14328
3.09003
3.06113
3.04287
3.03374
3.01003
2.9776
2.93005
2.86293
2.78964
2.74606
2.7211
2.70034
2.68084
2.65934
2.63644
2.60386
2.55294
2.49963
2.46362
2.43955
2.41934
2.39959
2.37666
2.34339
2.29717
2.25385
2.22508
2.20403
2.18514
2.16645
2.14628
2.12187
2.08686
2.04172
1.99937
1.97381
1.95956
1.94689
1.93444
1.9223
1.90988
1.89529
1.87106
1.83475
1.77877
3.70187
3.49368
3.29731
3.11657
2.93339
2.75307
2.60078
2.45886
2.31425
2.18045
2.07089
1.97192
1.8734
1.76854
1.69355
1.63151
1.55605
1.47777
1.43476
1.39184
1.33487
1.33606
1.48629
1.9097
2.24703
2.28025
2.22584
2.16918
2.14471
2.11982
2.08587
2.04635
2.00146
1.95048
1.90296
1.86626
1.84102
1.82527
1.8147
1.81533
1.81626
1.79861
1.76698
1.74047
1.76703
1.91979
2.30097
2.71692
3.06375
3.16032
3.15506
3.12522
3.07876
3.03695
3.00113
2.96999
2.94799
2.92537
2.88635
2.83259
2.77648
2.73141
2.70189
2.68075
2.66383
2.64253
2.6137
2.57389
2.52917
2.48479
2.44745
2.42023
2.39956
2.37997
2.35603
2.32317
2.28138
2.24162
2.21087
2.18606
2.16322
2.14038
2.11655
2.09055
2.05904
2.02228
1.99163
1.9728
1.95858
1.94518
1.93226
1.91668
1.89689
1.8698
1.8328
1.77704
3.76118
3.56228
3.37498
3.19963
3.0215
2.85308
2.70425
2.55997
2.41129
2.29215
2.17983
2.0692
1.9611
1.87505
1.78963
1.71198
1.65114
1.58267
1.50737
1.45098
1.46292
1.63733
2.0854
2.44222
2.46396
2.40309
2.32537
2.27832
2.24962
2.21621
2.18099
2.14554
2.10556
2.05736
2.00161
1.94589
1.90697
1.87771
1.85316
1.83167
1.81506
1.80111
1.78411
1.76012
1.71409
1.69122
1.72753
1.92492
2.33827
2.76172
3.01075
3.11116
3.10444
3.05356
2.99806
2.94316
2.90973
2.88781
2.8718
2.84946
2.8185
2.77576
2.72791
2.6844
2.64634
2.6156
2.58973
2.568
2.54447
2.51339
2.4749
2.43309
2.39841
2.37537
2.3565
2.33418
2.30318
2.26385
2.2234
2.18916
2.16107
2.13677
2.11505
2.09482
2.07365
2.04843
2.01572
1.98485
1.96934
1.95803
1.94355
1.92322
1.89916
1.86822
1.82648
1.77868
3.81193
3.62891
3.45378
3.27848
3.10438
2.95012
2.80219
2.65362
2.50886
2.39273
2.27874
2.16413
2.05428
1.97252
1.88805
1.79932
1.73124
1.66479
1.58929
1.59598
1.79616
2.24956
2.61549
2.63969
2.57842
2.51404
2.44759
2.39207
2.34769
2.30598
2.26702
2.22928
2.19093
2.15217
2.10941
2.05066
1.98379
1.93934
1.90885
1.88077
1.85227
1.82803
1.8091
1.78797
1.75454
1.70109
1.67188
1.66592
1.72009
1.96691
2.36219
2.77671
3.00166
3.04699
3.01621
2.93296
2.89165
2.86534
2.84923
2.84452
2.82909
2.80333
2.7617
2.69768
2.63942
2.60675
2.58328
2.56113
2.54077
2.52134
2.49587
2.45626
2.40984
2.37396
2.34995
2.32915
2.30545
2.27635
2.23756
2.19308
2.15775
2.13468
2.1168
2.09982
2.08205
2.06281
2.03963
2.00919
1.97658
1.95019
1.93155
1.91719
1.9002
1.87049
1.82976
1.78857
3.8714
3.6999
3.53187
3.36015
3.1934
3.04239
2.89488
2.74209
2.60908
2.48995
2.37502
2.25446
2.1534
2.06605
1.98147
1.89663
1.8098
1.73379
1.75676
2.00783
2.47679
2.78594
2.81283
2.75261
2.69181
2.6402
2.58195
2.5135
2.4481
2.39666
2.35223
2.31119
2.27427
2.2399
2.20298
2.15521
2.08996
2.02372
1.97738
1.94461
1.91487
1.88575
1.85736
1.82946
1.80207
1.76493
1.71059
1.65513
1.64767
1.64967
1.72168
1.98291
2.38655
2.75403
2.94725
2.92796
2.91677
2.8797
2.84243
2.83032
2.82188
2.80054
2.77334
2.72023
2.64921
2.60647
2.58342
2.56309
2.54339
2.52324
2.5006
2.46903
2.42476
2.37977
2.34577
2.32294
2.30535
2.28238
2.2483
2.20697
2.16804
2.13429
2.11165
2.09768
2.08762
2.07704
2.05954
2.02842
1.9868
1.95221
1.92928
1.90763
1.88501
1.86022
1.83927
1.80995
3.93478
3.76849
3.59987
3.43264
3.27886
3.12817
2.97728
2.82921
2.70615
2.58406
2.46596
2.34435
2.25411
2.15852
2.06883
1.97823
1.8874
1.92639
2.2507
2.78744
3.01489
2.9992
2.92023
2.85097
2.8114
2.76745
2.71164
2.64295
2.55917
2.48532
2.43488
2.39339
2.35502
2.31753
2.27794
2.23337
2.17723
2.10765
2.04732
2.00643
1.97414
1.94422
1.91442
1.8837
1.85312
1.8178
1.77435
1.72124
1.66886
1.63292
1.63269
1.63973
1.72719
1.98565
2.39097
2.70807
2.86553
2.87223
2.86538
2.85492
2.82572
2.7969
2.76777
2.72615
2.66769
2.61853
2.58909
2.56826
2.54805
2.52649
2.50289
2.47314
2.43306
2.38778
2.34924
2.31905
2.28988
2.26005
2.23283
2.20792
2.17811
2.1468
2.12247
2.10256
2.0827
2.06129
2.03949
2.01738
1.99029
1.95943
1.93039
1.9043
1.88119
1.8601
1.84738
1.82397
3.99309
3.82843
3.66141
3.50346
3.35488
3.20857
3.05784
2.92491
2.80029
2.67893
2.55286
2.444
2.34621
2.2478
2.154
2.05841
2.12083
2.49526
3.0937
3.31267
3.22909
3.11175
3.02094
2.96415
2.92818
2.88261
2.82552
2.76018
2.67886
2.58744
2.51914
2.47154
2.43035
2.39134
2.35264
2.31187
2.26459
2.20306
2.13091
2.07149
2.03021
1.99648
1.96509
1.93487
1.9058
1.87533
1.84005
1.79304
1.73394
1.68263
1.64645
1.62228
1.6234
1.63221
1.72948
2.00651
2.38581
2.65092
2.79688
2.82652
2.82932
2.82045
2.78153
2.73378
2.68428
2.64125
2.60405
2.5759
2.55363
2.52994
2.50334
2.47319
2.43653
2.39334
2.35072
2.31373
2.28201
2.25411
2.22976
2.20481
2.1802
2.15754
2.13363
2.1067
2.07896
2.05401
2.03091
2.00713
1.98393
1.96118
1.934
1.90543
1.88666
1.87651
1.86905
1.84365
4.04651
3.88462
3.72663
3.57782
3.43025
3.2819
3.14098
3.01759
2.8907
2.765
2.64053
2.53834
2.42635
2.33176
2.2409
2.33424
2.79585
3.28961
3.56079
3.51643
3.3917
3.26626
3.15113
3.08343
3.03788
2.98789
2.92984
2.86705
2.79356
2.70194
2.61209
2.5494
2.50193
2.46019
2.42046
2.38044
2.33792
2.28755
2.22413
2.15666
2.10043
2.05542
2.01601
1.97969
1.94697
1.91756
1.88851
1.85404
1.80766
1.75681
1.70655
1.66904
1.63674
1.61354
1.60901
1.62181
1.7204
1.98364
2.30502
2.59869
2.72236
2.77923
2.77517
2.74704
2.714
2.67524
2.62432
2.58203
2.55485
2.5296
2.50346
2.47785
2.44888
2.40755
2.35375
2.30414
2.27335
2.25238
2.23161
2.20975
2.18931
2.16746
2.14232
2.11455
2.08253
2.04865
2.01928
1.99691
1.98069
1.96503
1.94315
1.91939
1.90072
1.88277
1.8625
1.82531
4.12473
3.96098
3.80822
3.66062
3.51322
3.36334
3.23055
3.10133
2.97631
2.84381
2.73392
2.61455
2.51438
2.44355
2.60437
3.19222
3.62162
3.72419
3.71095
3.62496
3.53782
3.44006
3.31568
3.20693
3.13988
3.08348
3.02431
2.96159
2.89528
2.81728
2.72377
2.63903
2.5785
2.52972
2.48516
2.44162
2.39716
2.34942
2.29389
2.23104
2.17411
2.12955
2.09065
2.05127
2.00897
1.96405
1.92043
1.88051
1.84433
1.80916
1.77172
1.73935
1.70353
1.66898
1.62967
1.60404
1.5816
1.59239
1.67209
1.91748
2.24953
2.53351
2.69373
2.73595
2.73842
2.70913
2.64568
2.58011
2.53518
2.51496
2.50359
2.48674
2.46218
2.42446
2.37351
2.31614
2.27263
2.24709
2.22663
2.20936
2.19425
2.17718
2.15677
2.12752
2.08617
2.04795
2.0208
2.00085
1.98181
1.95954
1.94052
1.93005
1.91897
1.89803
1.86743
1.81752
4.20865
4.04406
3.88883
3.73844
3.58536
3.44262
3.31095
3.1817
3.04526
2.92579
2.80575
2.69913
2.66452
2.90236
3.58868
4.07141
4.01619
3.91075
3.79611
3.7314
3.6757
3.58693
3.47041
3.34312
3.25119
3.18218
3.11645
3.05004
2.98286
2.9108
2.82826
2.74154
2.66892
2.61149
2.56059
2.51121
2.46098
2.40852
2.35167
2.28942
2.2298
2.18359
2.14751
2.11344
2.07698
2.03544
1.98743
1.93183
1.87245
1.82264
1.79353
1.77292
1.74896
1.72366
1.69141
1.65328
1.60789
1.56609
1.53539
1.54519
1.64605
1.88906
2.22265
2.49473
2.67063
2.68233
2.66373
2.60606
2.5449
2.51169
2.49154
2.46586
2.44269
2.42415
2.39336
2.33738
2.28636
2.25569
2.23445
2.2176
2.20057
2.18008
2.14812
2.10857
2.07836
2.05085
2.02834
2.00872
1.98795
1.96757
1.95122
1.93393
1.91087
1.88137
1.85123
1.80828
4.23914
4.13162
3.97222
3.81456
3.66344
3.52456
3.39383
3.25585
3.11649
3.00693
2.88182
2.92298
3.27568
3.91159
4.38981
4.38133
4.20878
4.0447
3.93435
3.87046
3.80975
3.7188
3.6097
3.48909
3.37811
3.29232
3.2171
3.14348
3.07075
2.99759
2.92016
2.83789
2.7608
2.69683
2.64157
2.58886
2.53532
2.47919
2.41936
2.35529
2.28967
2.23115
2.18574
2.14952
2.11606
2.08128
2.04177
1.99435
1.93758
1.87332
1.81518
1.7788
1.75806
1.74116
1.72172
1.69534
1.65388
1.60358
1.55492
1.52376
1.51047
1.52513
1.64048
1.88341
2.22609
2.43734
2.56553
2.57338
2.55647
2.53563
2.50376
2.47218
2.44759
2.41992
2.37622
2.32882
2.29204
2.26624
2.25013
2.23711
2.22178
2.19659
2.15632
2.10359
2.05694
2.03691
2.02429
2.0107
1.99724
1.98483
1.96979
1.94871
1.9142
1.87312
1.8406
1.80198
4.04628
4.19505
4.07325
3.90124
3.75544
3.61363
3.48546
3.32636
3.20639
3.10342
3.22847
3.76409
4.35852
4.63335
4.6555
4.51798
4.36695
4.23011
4.11077
4.01666
3.92981
3.83287
3.72788
3.61764
3.50759
3.41118
3.32735
3.24897
3.17229
3.09472
3.01358
2.9287
2.84652
2.7751
2.71439
2.65879
2.60375
2.54657
2.48557
2.42031
2.35223
2.2864
2.22903
2.18233
2.14251
2.10556
2.06965
2.03168
1.98456
1.92525
1.86504
1.8175
1.78299
1.75573
1.73192
1.70992
1.68111
1.64263
1.59411
1.54595
1.50953
1.49844
1.48917
1.5065
1.60962
1.84592
2.14623
2.33405
2.43208
2.49414
2.493
2.48159
2.4608
2.42662
2.3775
2.33228
2.29947
2.27874
2.26144
2.24095
2.21263
2.17877
2.14231
2.09876
2.05924
2.03764
2.02233
2.01007
1.9992
1.98641
1.96861
1.9397
1.89871
1.85974
1.83801
1.80598
3.04535
4.09213
4.13584
4.00087
3.84227
3.71439
3.55759
3.42084
3.36569
3.61459
4.29017
4.91554
4.96681
4.87197
4.74936
4.63811
4.54322
4.43421
4.30496
4.1736
4.05753
3.95093
3.84706
3.74263
3.63611
3.53446
3.44375
3.35982
3.27773
3.19413
3.10715
3.01818
2.93171
2.85213
2.78095
2.71657
2.65574
2.59551
2.53363
2.46932
2.40349
2.33835
2.27621
2.22026
2.17201
2.13016
2.09096
2.05081
2.00591
1.95527
1.90298
1.85502
1.81558
1.78402
1.75354
1.71809
1.67447
1.63355
1.5998
1.56824
1.53435
1.50202
1.47769
1.46474
1.44434
1.46728
1.55995
1.79462
2.06317
2.31047
2.36818
2.40533
2.40989
2.39131
2.36767
2.34358
2.3158
2.293
2.27207
2.24461
2.20929
2.17476
2.13517
2.08544
2.0594
2.0486
2.03804
2.02804
2.01655
2.00062
1.97532
1.93659
1.89473
1.85742
1.82538
1.79878
1.80228
3.35715
4.09499
4.08169
3.94653
3.79933
3.63627
3.70673
4.17807
4.84226
5.32946
5.42798
5.25873
5.03615
4.88708
4.80107
4.72186
4.61173
4.47787
4.33262
4.19983
4.08448
3.97607
3.86918
3.76261
3.65819
3.55816
3.46199
3.36768
3.27401
3.18139
3.09159
3.00588
2.92356
2.84389
2.76853
2.69906
2.63412
2.57009
2.50476
2.43937
2.377
2.31771
2.26191
2.20945
2.15884
2.10932
2.06408
2.02175
1.97548
1.92187
1.87497
1.83601
1.79745
1.75903
1.72232
1.68603
1.64662
1.605
1.57116
1.54069
1.5141
1.48968
1.46626
1.44235
1.40815
1.37516
1.40425
1.5214
1.76616
2.02298
2.24287
2.34789
2.35087
2.33504
2.3119
2.28179
2.2554
2.2329
2.20668
2.18291
2.16081
2.12755
2.08526
2.05549
2.0359
2.01988
2.00799
1.99557
1.98011
1.95685
1.92786
1.89766
1.86462
1.83209
1.8073
1.42335
2.03298
3.56747
4.06619
4.01628
3.89757
4.15841
4.9223
5.59253
5.69293
5.69253
5.61699
5.45672
5.26132
5.10355
5.001
4.89542
4.77087
4.63409
4.48928
4.34816
4.21907
4.09891
3.98292
3.86941
3.75834
3.64946
3.54188
3.43591
3.33366
3.23749
3.14809
3.06364
2.98092
2.89766
2.81406
2.73309
2.65954
2.59536
2.53585
2.47488
2.41387
2.35624
2.30212
2.24866
2.19432
2.13695
2.07648
2.01674
1.97318
1.94646
1.91413
1.87316
1.82596
1.77626
1.72679
1.68464
1.65437
1.62396
1.59455
1.5686
1.54382
1.5171
1.48493
1.44971
1.40275
1.36422
1.35297
1.34868
1.38049
1.51698
1.7597
2.02263
2.17449
2.27537
2.28045
2.27548
2.25817
2.23042
2.19777
2.17102
2.13995
2.10129
2.07798
2.06231
2.04142
2.01957
1.99942
1.97926
1.95715
1.93405
1.90979
1.88402
1.8633
1.84247
1.85869
1.40031
1.45437
2.2806
3.65628
4.01092
4.76737
5.72158
6.23251
6.20394
6.03067
5.847
5.74767
5.63196
5.46284
5.29001
5.15928
5.02974
4.89126
4.75063
4.60821
4.4644
4.32565
4.19551
4.07199
3.95249
3.83512
3.71842
3.60188
3.48752
3.37976
3.28106
3.18971
3.10179
3.01429
2.9263
2.83924
2.7559
2.6781
2.60493
2.53559
2.47059
2.40911
2.35083
2.29549
2.24261
2.19139
2.13822
2.08049
2.0256
1.9797
1.93722
1.89479
1.85382
1.81342
1.77211
1.72896
1.68825
1.64646
1.60505
1.57094
1.54388
1.52231
1.49969
1.47487
1.4454
1.40662
1.3787
1.3542
1.32668
1.31486
1.32004
1.36694
1.52459
1.74382
1.9858
2.0955
2.19185
2.21285
2.20521
2.19028
2.16889
2.13489
2.09882
2.06995
2.04398
2.01509
1.98825
1.96425
1.94469
1.92956
1.91867
1.90915
1.8912
1.89275
1.92033
2.11494
1.40001
1.40103
1.50547
2.39115
4.52453
6.46971
6.60908
6.51429
6.29515
6.06832
5.94781
5.8566
5.75063
5.58619
5.40768
5.26857
5.13491
4.99421
4.85166
4.70823
4.56059
4.41532
4.27967
4.15178
4.02834
3.90748
3.78749
3.66817
3.55206
3.44261
3.34073
3.24425
3.15029
3.05699
2.96442
2.8745
2.78922
2.70864
2.63213
2.56092
2.49582
2.43497
2.37764
2.32358
2.27206
2.22007
2.16722
2.11425
2.05927
2.00117
1.94397
1.89399
1.85113
1.81264
1.77593
1.73643
1.69198
1.64536
1.60235
1.56605
1.53732
1.5191
1.50411
1.48815
1.46584
1.4354
1.39046
1.34633
1.32201
1.30614
1.29699
1.29363
1.29836
1.34605
1.49251
1.72322
1.9635
2.06277
2.09567
2.12383
2.11943
2.10672
2.09293
2.06822
2.03334
1.99413
1.96319
1.9421
1.93322
1.92757
1.92361
1.9423
2.00801
2.1508
2.33553
2.62386
1.40001
1.40001
1.40211
1.71437
5.28529
6.84378
6.44098
6.20683
6.06034
5.94682
5.87462
5.80433
5.69852
5.53915
5.36704
5.21493
5.07371
4.93148
4.7839
4.63759
4.4909
4.3439
4.20603
4.07647
3.95121
3.82866
3.70801
3.58948
3.47501
3.36666
3.26432
3.16628
3.07096
2.97773
2.88711
2.80056
2.71947
2.64404
2.57362
2.50767
2.44533
2.38618
2.33076
2.27927
2.23068
2.18335
2.13519
2.08456