/*--------------------------------*- C++ -*----------------------------------*\
  =========                 |
  \\      /  F ield         | OpenFOAM: The Open Source CFD Toolbox
   \\    /   O peration     | Website:  https://openfoam.org
    \\  /    A nd           | Version:  7
     \\/     M anipulation  |
\*---------------------------------------------------------------------------*/
FoamFile
{
    version     2.0;
    format      ascii;
    class       volVectorField;
    location    "3";
    object      U;
}
// * * * * * * * * * * * * * * * * * * * * * * * * * * * * * * * * * * * * * //

dimensions      [0 1 -1 0 0 0 0];

internalField   nonuniform List<vector> 
4032
(
(3 1.06768e-16 0)
(3 -3.33061e-16 0)
(3 -5.50057e-16 0)
(3 -4.71681e-16 0)
(3 -3.78218e-16 0)
(3 -6.30733e-17 0)
(3 -1.4254e-16 0)
(3 1.25828e-17 0)
(3 -3.38908e-17 0)
(3 -1.82976e-16 0)
(3 -3.29084e-16 0)
(2.97596 0.00408778 0)
(1.0466 0.0201581 0)
(0.70787 0.0189768 0)
(0.656139 0.0207728 0)
(0.601082 0.0219978 0)
(0.545706 0.0236063 0)
(0.488145 0.0257569 0)
(0.427451 0.028294 0)
(0.362594 0.0310782 0)
(0.292926 0.0340487 0)
(0.217102 0.0378243 0)
(0.134797 0.0403479 0)
(0.0499139 0.0450239 0)
(3 2.70471e-17 0)
(3 1.37022e-16 0)
(3 -9.80836e-18 0)
(3 2.89838e-16 0)
(3 3.51413e-16 0)
(3 8.18359e-16 0)
(3 9.07793e-16 0)
(3 6.07701e-16 0)
(3 2.53868e-16 0)
(3 -5.01595e-17 0)
(3 1.29286e-16 0)
(2.99011 0.00497752 0)
(1.06875 0.0804694 0)
(0.713565 0.0660062 0)
(0.65861 0.0683664 0)
(0.599955 0.0722653 0)
(0.540587 0.076322 0)
(0.479763 0.0815897 0)
(0.416953 0.0880868 0)
(0.351311 0.0959795 0)
(0.282053 0.104855 0)
(0.208073 0.116597 0)
(0.128082 0.124606 0)
(0.0472833 0.137707 0)
(3 2.04811e-16 0)
(3 1.86218e-16 0)
(3 1.00465e-16 0)
(3 4.55519e-16 0)
(3 7.91216e-16 0)
(3 1.1441e-15 0)
(3 1.66647e-15 0)
(3 1.51654e-15 0)
(3 1.52143e-15 0)
(3 1.63087e-15 0)
(3 1.42522e-15 0)
(3.00059 0.00097121 0)
(1.1325 0.126956 0)
(0.727297 0.108212 0)
(0.670022 0.116171 0)
(0.610088 0.123919 0)
(0.54874 0.131054 0)
(0.485975 0.139542 0)
(0.421321 0.149465 0)
(0.354163 0.161544 0)
(0.283501 0.174971 0)
(0.209012 0.193476 0)
(0.127653 0.20599 0)
(0.0475417 0.225826 0)
(3 -4.68822e-17 0)
(3 -5.74077e-17 0)
(3 -1.12814e-16 0)
(3 6.84508e-17 0)
(3 2.91825e-17 0)
(3 2.02131e-16 0)
(3 2.94422e-16 0)
(3 3.78317e-16 0)
(3 1.1788e-15 0)
(3 1.88901e-15 0)
(3 1.51633e-15 0)
(3.00003 3.16844e-06 0)
(1.23002 0.177635 0)
(0.736015 0.154692 0)
(0.673107 0.165934 0)
(0.614411 0.177029 0)
(0.554183 0.186957 0)
(0.492705 0.198872 0)
(0.428368 0.212793 0)
(0.360368 0.230113 0)
(0.287656 0.248633 0)
(0.212056 0.274196 0)
(0.128815 0.291738 0)
(0.0467794 0.316278 0)
(3 -3.34911e-16 0)
(3 1.76239e-16 0)
(3 4.17204e-16 0)
(3 5.25104e-16 0)
(3 3.61499e-16 0)
(3 -2.36363e-16 0)
(3 -2.94694e-16 0)
(3 -8.83086e-18 0)
(3 4.54264e-16 0)
(3 1.30219e-15 0)
(3 1.07378e-15 0)
(3 -2.30662e-09 0)
(1.3843 0.229426 0)
(0.752259 0.205611 0)
(0.679418 0.215464 0)
(0.623927 0.22829 0)
(0.567078 0.240582 0)
(0.509548 0.256381 0)
(0.448729 0.275228 0)
(0.384125 0.299009 0)
(0.313104 0.322921 0)
(0.238107 0.356141 0)
(0.148623 0.382197 0)
(0.0568315 0.414719 0)
(3 5.53442e-17 0)
(3 1.65828e-16 0)
(3 3.54586e-16 0)
(3 6.78576e-16 0)
(3 1.17115e-15 0)
(3 1.12194e-15 0)
(3 5.25391e-16 0)
(3 6.48831e-16 0)
(3 5.27942e-16 0)
(3 7.28027e-16 0)
(3 6.61126e-16 0)
(3 -1.77731e-10 0)
(1.61214 0.279273 0)
(0.777815 0.265436 0)
(0.68348 0.264623 0)
(0.628665 0.277117 0)
(0.574777 0.290901 0)
(0.522861 0.310572 0)
(0.468153 0.334608 0)
(0.409114 0.366825 0)
(0.337919 0.40093 0)
(0.259057 0.448826 0)
(0.162099 0.493033 0)
(0.0556 0.534584 0)
(3 -5.56145e-18 0)
(3 4.38783e-16 0)
(3 5.10041e-16 0)
(3 6.93129e-16 0)
(3 1.00174e-15 0)
(3 6.99712e-16 0)
(3 6.95581e-16 0)
(3 8.44211e-16 0)
(3 7.89675e-16 0)
(3 6.99067e-16 0)
(3 8.22324e-16 0)
(3 -1.85565e-11 0)
(1.93625 0.330403 0)
(0.81783 0.341978 0)
(0.691613 0.32579 0)
(0.637331 0.330836 0)
(0.585676 0.342256 0)
(0.53859 0.36334 0)
(0.489475 0.391281 0)
(0.44034 0.433168 0)
(0.378987 0.480785 0)
(0.314593 0.541733 0)
(0.226833 0.60457 0)
(0.0987098 0.674683 0)
(3 2.34771e-16 0)
(3 1.76787e-16 0)
(3 8.57434e-17 0)
(3 -3.02982e-16 0)
(3 -5.50978e-16 0)
(3 -7.59563e-16 0)
(3 2.10818e-16 0)
(3 1.05937e-15 0)
(3 8.79106e-16 0)
(3 6.41286e-16 0)
(3 1.0311e-15 0)
(3 -2.83117e-12 0)
(2.41482 0.332836 0)
(0.912438 0.430748 0)
(0.75209 0.378948 0)
(0.696801 0.383557 0)
(0.637968 0.392754 0)
(0.586656 0.414135 0)
(0.536003 0.444935 0)
(0.492252 0.491925 0)
(0.441881 0.549032 0)
(0.382903 0.636186 0)
(0.268394 0.763769 0)
(0.148987 0.933749 0)
(3 4.27511e-17 0)
(3 -5.59774e-16 0)
(3 -8.74337e-16 0)
(3 -1.60328e-15 0)
(3 -1.72603e-15 0)
(3 -9.75545e-16 0)
(3 -1.15671e-16 0)
(3 2.17913e-16 0)
(3 5.0281e-16 0)
(3 3.97194e-16 0)
(3 5.52435e-16 0)
(3 -1.91002e-13 0)
(2.96929 0.135714 0)
(1.10543 0.461448 0)
(0.848071 0.410451 0)
(0.793757 0.429894 0)
(0.724973 0.444869 0)
(0.664133 0.465891 0)
(0.610012 0.496017 0)
(0.565032 0.544678 0)
(0.522504 0.616565 0)
(0.487236 0.741896 0)
(0.456982 0.922412 0)
(0.575616 1.20827 0)
(3 -2.31975e-16 0)
(3 -4.65386e-16 0)
(3 -6.16287e-16 0)
(3 -4.14619e-16 0)
(3 -3.33088e-16 0)
(3 2.33164e-16 0)
(3 4.83384e-16 0)
(3 7.78502e-16 0)
(3 9.2961e-16 0)
(3 9.84438e-16 0)
(3 6.93425e-16 0)
(3 -2.35836e-14 0)
(3.03351 0.00649586 0)
(1.29395 0.43565 0)
(0.874998 0.471853 0)
(0.835289 0.502761 0)
(0.778046 0.514791 0)
(0.726007 0.532509 0)
(0.681138 0.559219 0)
(0.641343 0.604432 0)
(0.619847 0.68093 0)
(0.616681 0.810166 0)
(0.678975 0.959546 0)
(0.966976 1.13353 0)
(3 2.14533e-16 0)
(3 2.59936e-16 0)
(3 4.11822e-16 0)
(3 4.77691e-16 0)
(3 2.46993e-16 0)
(3 4.84804e-16 0)
(3 9.9783e-16 0)
(3 9.41212e-16 0)
(3 1.36736e-15 0)
(3 1.63475e-15 0)
(3 9.31889e-16 0)
(3 -3.73288e-15 0)
(3.00078 -9.10454e-06 0)
(1.61345 0.466652 0)
(0.865792 0.511667 0)
(0.833414 0.542792 0)
(0.80558 0.566444 0)
(0.778062 0.585414 0)
(0.75129 0.610863 0)
(0.726246 0.650233 0)
(0.725582 0.720086 0)
(0.749729 0.831915 0)
(0.870572 0.958471 0)
(1.18136 1.06701 0)
(3 4.42891e-17 0)
(3 2.70906e-16 0)
(3 5.76153e-16 0)
(3 4.26807e-16 0)
(3 6.69646e-16 0)
(3 8.22308e-16 0)
(3 6.89194e-16 0)
(3 1.14899e-15 0)
(3 1.45208e-15 0)
(3 1.21209e-15 0)
(3 1.07834e-16 0)
(3 -2.41611e-16 0)
(3 -1.44989e-06 0)
(2.27958 0.467985 0)
(0.962281 0.588661 0)
(0.862646 0.55425 0)
(0.857485 0.584173 0)
(0.840584 0.616701 0)
(0.824122 0.650637 0)
(0.814296 0.689487 0)
(0.825708 0.750695 0)
(0.87289 0.83544 0)
(1.01164 0.933119 0)
(1.27581 0.995504 0)
(3 -3.83093e-16 0)
(3 3.08917e-16 0)
(3 8.36451e-16 0)
(3 1.29199e-15 0)
(3 1.47258e-15 0)
(3 6.49517e-16 0)
(3 2.85285e-16 0)
(3 3.18531e-16 0)
(3 3.21629e-16 0)
(3 -1.83832e-16 0)
(3 -4.98121e-16 0)
(3 -3.17641e-16 0)
(3 -5.08558e-07 0)
(3.0559 0.131953 0)
(1.22602 0.602493 0)
(0.943098 0.563438 0)
(0.933395 0.615421 0)
(0.913919 0.648607 0)
(0.900136 0.681942 0)
(0.900002 0.719458 0)
(0.917169 0.771131 0)
(0.979527 0.838433 0)
(1.11597 0.909078 0)
(1.33255 0.949513 0)
(3 3.15683e-17 0)
(3 1.1503e-16 0)
(3 -1.29575e-16 0)
(3 -1.88373e-17 0)
(3 -7.92686e-17 0)
(3 -5.18492e-16 0)
(3 -9.47733e-16 0)
(3 -1.41758e-15 0)
(3 -2.15867e-15 0)
(3 -2.16846e-15 0)
(3 -1.85759e-15 0)
(3 -1.20615e-15 0)
(3 -6.42773e-08 0)
(3.03 0.00204268 0)
(1.49703 0.588234 0)
(0.970019 0.649517 0)
(0.945221 0.663252 0)
(0.933215 0.686204 0)
(0.944375 0.717004 0)
(0.961833 0.751363 0)
(0.995755 0.788732 0)
(1.06403 0.833835 0)
(1.18504 0.877814 0)
(1.35325 0.900247 0)
(3 1.07645e-16 0)
(3 -2.4776e-16 0)
(3 -8.78224e-16 0)
(3 -1.43277e-15 0)
(3 -1.41712e-15 0)
(3 -1.12634e-15 0)
(3 -1.40414e-15 0)
(3 -9.30216e-16 0)
(3 -1.58778e-15 0)
(3 -1.54203e-15 0)
(3 -1.56352e-15 0)
(3 -9.6298e-16 0)
(3 -2.83798e-09 0)
(3.00045 -8.60056e-06 0)
(2.21859 0.556689 0)
(1.06279 0.726713 0)
(0.984175 0.685733 0)
(0.971042 0.698562 0)
(0.987408 0.723323 0)
(1.01311 0.758055 0)
(1.05901 0.79598 0)
(1.13271 0.833875 0)
(1.23933 0.865134 0)
(1.37469 0.879056 0)
(3 2.59477e-16 0)
(3 -3.72872e-17 0)
(3 -1.97529e-16 0)
(3 -1.23613e-16 0)
(3 -8.47057e-17 0)
(3 -2.89494e-16 0)
(3 -5.32433e-16 0)
(3 6.55978e-16 0)
(3 1.01243e-15 0)
(3 8.03046e-16 0)
(3 1.15737e-15 0)
(3 1.22603e-15 0)
(3 -1.02567e-11 0)
(3.00003 -1.46522e-05 0)
(3.05983 0.127571 0)
(1.38253 0.717767 0)
(1.07874 0.707499 0)
(1.05328 0.709697 0)
(1.05011 0.734189 0)
(1.06795 0.762876 0)
(1.11056 0.791985 0)
(1.17994 0.821878 0)
(1.2734 0.84377 0)
(1.38689 0.852356 0)
(3 -4.30998e-17 0)
(3 3.25752e-17 0)
(3 1.63596e-16 0)
(3 3.84695e-16 0)
(3 4.09491e-16 0)
(3 2.43597e-16 0)
(3 3.37634e-16 0)
(3 9.05579e-16 0)
(3 1.56161e-15 0)
(3 2.11401e-15 0)
(3 2.17051e-15 0)
(3 2.8607e-15 0)
(3 -9.64139e-15 0)
(3 -3.13674e-06 0)
(3.02203 0.00150248 0)
(1.81188 0.676337 0)
(1.11529 0.782013 0)
(1.09309 0.776511 0)
(1.10263 0.77533 0)
(1.12025 0.786421 0)
(1.15926 0.803394 0)
(1.22266 0.822811 0)
(1.30453 0.837536 0)
(1.40248 0.842681 0)
(3 -1.67207e-16 0)
(3 -4.80652e-17 0)
(3 -1.18816e-16 0)
(3 9.47066e-17 0)
(3 1.21562e-17 0)
(3 3.98213e-16 0)
(3 1.23635e-15 0)
(3 9.76412e-16 0)
(3 1.06525e-15 0)
(3 1.22454e-15 0)
(3 1.61398e-15 0)
(3 1.5846e-15 0)
(3 1.56848e-15 0)
(3 -2.5417e-07 0)
(3.00022 1.16154e-05 0)
(2.8205 0.32973 0)
(1.30688 0.789351 0)
(1.15302 0.777737 0)
(1.17147 0.776793 0)
(1.18524 0.790639 0)
(1.2162 0.804233 0)
(1.2687 0.816957 0)
(1.33787 0.827389 0)
(1.4213 0.831131 0)
(3 -3.22562e-17 0)
(3 6.07534e-17 0)
(3 3.53247e-16 0)
(3 2.87415e-16 0)
(3 2.07521e-16 0)
(3 5.39174e-16 0)
(3 6.68003e-16 0)
(3 5.84686e-16 0)
(3 4.15409e-16 0)
(3 9.51819e-16 0)
(3 1.62031e-15 0)
(3 1.85943e-15 0)
(3 1.76554e-15 0)
(3 -1.37932e-09 0)
(3.00002 -7.00682e-06 0)
(3.05233 0.0145997 0)
(1.67757 0.734311 0)
(1.18494 0.820447 0)
(1.19819 0.820174 0)
(1.22007 0.82698 0)
(1.25592 0.834045 0)
(1.30393 0.840016 0)
(1.36434 0.843178 0)
(1.43523 0.840676 0)
(3 3.08691e-17 0)
(3 -2.68396e-17 0)
(3 2.5718e-16 0)
(3 -4.87973e-17 0)
(3 1.21335e-16 0)
(3 3.85204e-17 0)
(3 -6.66692e-18 0)
(3 1.0316e-16 0)
(3 2.41767e-16 0)
(3 8.41151e-16 0)
(3 1.31934e-15 0)
(3 1.12761e-15 0)
(3 2.10728e-15 0)
(3 -2.05585e-12 0)
(3 -1.50683e-06 0)
(3.00135 0.000247607 0)
(2.63057 0.466168 0)
(1.32049 0.852912 0)
(1.23332 0.828156 0)
(1.26379 0.826519 0)
(1.2981 0.831811 0)
(1.34389 0.835517 0)
(1.39704 0.836337 0)
(1.45851 0.831791 0)
(3 8.47469e-17 0)
(3 -4.48309e-17 0)
(3 -4.17986e-16 0)
(3 -9.41992e-16 0)
(3 -8.29677e-16 0)
(3 -8.71421e-16 0)
(3 -6.14868e-16 0)
(3 4.50167e-17 0)
(3 1.583e-16 0)
(3 2.16743e-17 0)
(3 -1.04708e-16 0)
(3 -6.23642e-16 0)
(3 -2.59069e-17 0)
(3 -3.64984e-16 0)
(3 -1.23981e-07 0)
(3 2.07454e-07 0)
(3.05872 0.0367036 0)
(1.73844 0.78524 0)
(1.2725 0.854996 0)
(1.29567 0.85276 0)
(1.32745 0.854139 0)
(1.36895 0.854496 0)
(1.41732 0.853144 0)
(1.47439 0.847053 0)
(3 -3.38636e-17 0)
(3 -4.41663e-16 0)
(3 -6.92352e-16 0)
(3 -3.48092e-16 0)
(3 -4.29279e-16 0)
(3 -1.04552e-15 0)
(3 -8.20472e-16 0)
(3 -5.34398e-16 0)
(3 -1.1615e-16 0)
(3 -6.28891e-16 0)
(3 -1.42567e-15 0)
(3 -8.9517e-16 0)
(3 -8.04538e-16 0)
(3 6.5169e-16 0)
(3 -7.38928e-10 0)
(3 -6.22341e-08 0)
(3.00281 0.0010303 0)
(2.69329 0.465466 0)
(1.42526 0.900943 0)
(1.32727 0.865564 0)
(1.36506 0.86008 0)
(1.40003 0.857439 0)
(1.44385 0.854189 0)
(1.49707 0.847678 0)
(3 7.47326e-18 0)
(3 2.4923e-17 0)
(3 2.16339e-16 0)
(3 4.81885e-16 0)
(3 3.33902e-16 0)
(3 2.67152e-16 0)
(3 -1.2377e-16 0)
(3 -6.00544e-16 0)
(3 -4.67772e-16 0)
(3 -3.72335e-16 0)
(3 -4.80026e-16 0)
(3 -8.41019e-17 0)
(3 3.62185e-16 0)
(3 8.61845e-16 0)
(3 -1.54656e-12 0)
(3 -1.27806e-08 0)
(3 3.91057e-06 0)
(3.04813 0.0332564 0)
(1.90308 0.788337 0)
(1.37625 0.889921 0)
(1.40012 0.882192 0)
(1.43043 0.87735 0)
(1.4689 0.870604 0)
(1.51287 0.863641 0)
(3 -2.83472e-17 0)
(3 4.12014e-16 0)
(3 5.91397e-16 0)
(3 2.42694e-17 0)
(3 2.9816e-16 0)
(3 7.20959e-16 0)
(3 4.20399e-16 0)
(3 -1.29928e-16 0)
(3 -1.22888e-15 0)
(3 -1.09682e-15 0)
(3 -6.22142e-16 0)
(3 -3.88632e-16 0)
(3 -4.95901e-16 0)
(3 1.90065e-17 0)
(3 -6.02302e-17 0)
(3 -1.19095e-09 0)
(3 -3.26675e-10 0)
(3.00172 0.001144 0)
(2.79688 0.356716 0)
(1.6112 0.913514 0)
(1.41922 0.901333 0)
(1.46073 0.895397 0)
(1.49269 0.886752 0)
(1.53019 0.875697 0)
(3 1.15727e-16 0)
(3 9.72632e-17 0)
(3 -7.60883e-18 0)
(3 -1.97245e-17 0)
(3 7.95303e-17 0)
(3 1.80889e-16 0)
(3 -7.04001e-17 0)
(3 8.33942e-17 0)
(3 -8.48546e-16 0)
(3 -1.29797e-15 0)
(3 -1.71692e-15 0)
(3 -7.20198e-16 0)
(3 -4.11567e-16 0)
(3 3.58695e-16 0)
(3 5.2338e-16 0)
(3 -1.81352e-11 0)
(3 -1.63143e-10 0)
(3 4.191e-06 0)
(3.02052 0.0223369 0)
(2.23332 0.729749 0)
(1.49322 0.927012 0)
(1.48832 0.917817 0)
(1.51955 0.902614 0)
(1.55039 0.889557 0)
(3 -3.35407e-18 0)
(3 1.98552e-16 0)
(3 4.39855e-17 0)
(3 3.64569e-17 0)
(3 -1.40013e-17 0)
(3 1.71123e-17 0)
(3 -5.94106e-16 0)
(3 -7.04248e-16 0)
(3 -3.48942e-16 0)
(3 -2.25999e-16 0)
(3 -4.36999e-16 0)
(3 3.64293e-16 0)
(3 8.5326e-16 0)
(3 4.07235e-16 0)
(3 3.07488e-16 0)
(3 -6.4008e-14 0)
(3 -2.01601e-11 0)
(3 1.24977e-09 0)
(3.00035 0.000750265 0)
(2.95981 0.180351 0)
(1.85988 0.862619 0)
(1.52093 0.931315 0)
(1.55354 0.918652 0)
(1.58313 0.902747 0)
(3 -1.6648e-16 0)
(3 5.01513e-19 0)
(3 -4.49322e-17 0)
(3 -6.09066e-17 0)
(3 -3.79088e-16 0)
(3 -3.52218e-16 0)
(3 -1.21445e-16 0)
(3 2.1098e-17 0)
(3 5.98286e-16 0)
(3 9.08927e-16 0)
(3 7.61693e-16 0)
(3 2.98362e-17 0)
(3 -6.38043e-16 0)
(3 -1.45215e-15 0)
(3 -9.29139e-16 0)
(3 -1.10918e-15 0)
(3 -1.30414e-12 0)
(3 -1.17842e-12 0)
(3 1.95796e-06 0)
(3.00508 0.010278 0)
(2.62153 0.493623 0)
(1.70231 0.946283 0)
(1.56232 0.941108 0)
(1.60052 0.927842 0)
(3 5.38333e-17 0)
(3 -2.28633e-16 0)
(3 -9.59006e-17 0)
(3 2.72149e-16 0)
(3 2.65578e-16 0)
(3 2.61539e-19 0)
(3 1.59243e-19 0)
(3 3.43416e-16 0)
(3 1.14245e-16 0)
(3 -1.41461e-16 0)
(3 -3.50856e-16 0)
(3 -1.55027e-15 0)
(3 -2.74284e-15 0)
(3 -2.38447e-15 0)
(3 -1.39675e-15 0)
(3 -7.85767e-16 0)
(3 -1.82085e-14 0)
(3 -3.81879e-13 0)
(3 8.1488e-10 0)
(3 0.000161063 0)
(3.00278 0.0535824 0)
(2.25692 0.73911 0)
(1.63527 0.953986 0)
(1.62224 0.95166 0)
(3 -1.50797e-17 0)
(3 -2.63159e-16 0)
(3 -2.36676e-16 0)
(3 -4.29733e-17 0)
(3 2.66176e-16 0)
(3 1.34809e-16 0)
(3 5.02943e-16 0)
(3 2.66754e-16 0)
(3 -1.82301e-16 0)
(3 -3.47845e-16 0)
(3 -6.46332e-16 0)
(3 -8.82054e-16 0)
(3 -3.17628e-16 0)
(3 2.38531e-16 0)
(3 5.29023e-16 0)
(3 1.0887e-15 0)
(3 1.15656e-15 0)
(3 -5.23581e-14 0)
(3 1.08663e-13 0)
(3 2.08096e-07 0)
(3.00025 0.00232551 0)
(2.91813 0.203362 0)
(1.99858 0.845739 0)
(1.67225 0.956963 0)
(3 -6.82872e-17 0)
(3 -3.40341e-16 0)
(3 -2.8135e-16 0)
(3 8.28172e-17 0)
(3 1.9291e-17 0)
(3 5.4118e-16 0)
(3 8.39255e-16 0)
(3 7.02969e-16 0)
(3 7.02679e-16 0)
(3 7.75394e-16 0)
(3 6.1168e-16 0)
(3 7.41818e-16 0)
(3 9.36143e-16 0)
(3 8.74961e-16 0)
(3 5.06718e-16 0)
(3 4.14972e-16 0)
(3 8.03765e-16 0)
(3 -1.06448e-15 0)
(3 -7.08117e-16 0)
(3 1.0822e-10 0)
(3 1.0579e-05 0)
(3.00058 0.0134671 0)
(2.69452 0.416146 0)
(1.88413 0.910736 0)
(3 4.47215e-17 0)
(3 7.12987e-17 0)
(3 6.26899e-17 0)
(3 1.78648e-16 0)
(3 3.07212e-16 0)
(3 3.73052e-16 0)
(3 4.12741e-17 0)
(3 2.5262e-16 0)
(3 5.00317e-16 0)
(3 7.05459e-16 0)
(3 1.12483e-15 0)
(3 5.1525e-16 0)
(3 -8.7406e-17 0)
(3 -8.39988e-16 0)
(3 -1.32816e-15 0)
(3 -1.24955e-15 0)
(3 -5.6617e-16 0)
(3 1.06563e-16 0)
(3 -5.68339e-16 0)
(3 1.3492e-14 0)
(3 8.57935e-09 0)
(2.99996 0.000211618 0)
(2.9933 0.0412765 0)
(2.45247 0.600976 0)
(3 4.85615e-17 0)
(3 2.31027e-17 0)
(3 -1.59977e-16 0)
(3 -6.15222e-16 0)
(3 -3.95269e-16 0)
(3 -8.42166e-16 0)
(3 -7.41665e-16 0)
(3 -1.46795e-16 0)
(3 6.02088e-16 0)
(3 6.59335e-16 0)
(3 8.74224e-16 0)
(3 4.9021e-16 0)
(3 2.31675e-16 0)
(3 -4.26505e-16 0)
(3 -6.04633e-16 0)
(3 -3.03719e-16 0)
(3 -2.13493e-16 0)
(3 -1.80714e-17 0)
(3 -6.03449e-16 0)
(3 -1.15536e-15 0)
(3 2.93383e-12 0)
(3 3.33036e-07 0)
(2.99983 0.00147063 0)
(2.9531 0.104751 0)
(3 -1.88589e-17 0)
(3 4.86257e-17 0)
(3 1.70569e-16 0)
(3 -3.17701e-17 0)
(3 -7.9969e-18 0)
(3 2.60517e-16 0)
(3 2.25657e-16 0)
(3 -2.91349e-16 0)
(3 -2.78864e-16 0)
(3 -5.56223e-16 0)
(3 -1.71175e-16 0)
(3 2.75712e-17 0)
(3 3.98561e-16 0)
(3 1.86185e-16 0)
(3 1.15334e-16 0)
(3 -1.46998e-16 0)
(3 2.18358e-16 0)
(3 7.43665e-16 0)
(3 3.1096e-16 0)
(3 -8.07879e-16 0)
(3 -8.04061e-16 0)
(3 2.42353e-10 0)
(3 4.93531e-06 0)
(2.99911 0.00553066 0)
(3 -7.53784e-17 0)
(3 1.83335e-16 0)
(3 3.41915e-16 0)
(3 7.25928e-16 0)
(3 1.14355e-15 0)
(3 1.38285e-15 0)
(3 9.86211e-16 0)
(3 -2.40629e-16 0)
(3 -9.75273e-16 0)
(3 -6.11379e-16 0)
(3 -5.30309e-16 0)
(3 2.35267e-18 0)
(3 3.08571e-16 0)
(3 9.93896e-16 0)
(3 9.23734e-16 0)
(3 3.90094e-16 0)
(3 2.20325e-16 0)
(3 2.55518e-16 0)
(3 -3.78662e-17 0)
(3 -6.10875e-17 0)
(3 -1.05124e-15 0)
(3 2.27251e-14 0)
(3 5.30544e-09 0)
(2.99999 3.9901e-05 0)
(3 5.81225e-18 0)
(3 -3.81706e-16 0)
(3 -2.57959e-16 0)
(3 6.6135e-18 0)
(3 -1.63701e-17 0)
(3 9.61968e-17 0)
(3 4.2567e-16 0)
(3 2.88304e-16 0)
(3 -1.41149e-16 0)
(3 -4.37597e-16 0)
(3 -5.58503e-16 0)
(3 8.50381e-17 0)
(3 -1.75967e-16 0)
(3 1.38144e-17 0)
(3 1.50817e-16 0)
(3 7.20393e-16 0)
(3 5.22345e-16 0)
(3 -4.57035e-17 0)
(3 -3.25332e-17 0)
(3 -2.9542e-17 0)
(3 -1.09138e-15 0)
(3 -7.7343e-16 0)
(3 1.22428e-12 0)
(3 5.6042e-08 0)
(3 5.58533e-17 0)
(3 7.31291e-17 0)
(3 -7.97784e-17 0)
(3 -1.80918e-16 0)
(3 -9.71207e-16 0)
(3 -9.37487e-16 0)
(3 -4.88115e-16 0)
(3 1.6606e-16 0)
(3 7.07191e-17 0)
(3 -9.44294e-17 0)
(3 3.3609e-17 0)
(3 4.44309e-18 0)
(3 -3.79429e-16 0)
(3 -5.56714e-16 0)
(3 -5.87267e-16 0)
(3 -2.78611e-16 0)
(3 7.41353e-17 0)
(3 -1.68881e-16 0)
(3 -3.606e-16 0)
(3 -5.78837e-16 0)
(3 -5.1545e-16 0)
(3 9.69768e-17 0)
(3 -4.91237e-16 0)
(3 2.77862e-11 0)
(3 3.61735e-16 0)
(3 1.27143e-15 0)
(3 1.1426e-15 0)
(3 5.53968e-16 0)
(3 1.40093e-16 0)
(3 -1.72624e-16 0)
(3 -5.08254e-16 0)
(3 1.20537e-16 0)
(3 -6.90036e-17 0)
(3 -4.72822e-16 0)
(3 -5.1455e-16 0)
(3 -2.12539e-16 0)
(3 -1.17122e-17 0)
(3 -3.84899e-17 0)
(3 3.44926e-16 0)
(3 -7.89375e-17 0)
(3 -4.30364e-16 0)
(3 -8.82463e-16 0)
(3 -1.38963e-15 0)
(3 -6.3002e-16 0)
(3 8.86048e-16 0)
(3 1.10471e-15 0)
(3 -1.94534e-16 0)
(3 2.78915e-15 0)
(3 5.5723e-18 0)
(3 2.84549e-16 0)
(3 6.94872e-16 0)
(3 5.55659e-16 0)
(3 4.49025e-16 0)
(3 5.48104e-17 0)
(3 -9.28064e-16 0)
(3 -8.0489e-16 0)
(3 -5.39972e-16 0)
(3 -1.09245e-15 0)
(3 -1.4823e-15 0)
(3 -1.01233e-15 0)
(3 -2.17096e-17 0)
(3 2.84638e-16 0)
(3 5.88158e-16 0)
(3 1.81109e-16 0)
(3 -1.48816e-16 0)
(3 -3.09732e-16 0)
(3 -2.37965e-16 0)
(3 5.05559e-16 0)
(3 1.34219e-15 0)
(3 1.26349e-15 0)
(3 1.61982e-15 0)
(3 1.51622e-15 0)
(3 -4.08327e-16 0)
(3 -1.86386e-16 0)
(3 -1.67561e-16 0)
(3 -2.55731e-16 0)
(3 -5.56348e-16 0)
(3 -1.0719e-15 0)
(3 -1.23274e-15 0)
(3 -9.90651e-16 0)
(3 -2.78677e-16 0)
(3 -2.66093e-16 0)
(3 -1.11981e-15 0)
(3 -9.13719e-16 0)
(3 -1.62892e-16 0)
(3 2.2664e-16 0)
(3 2.49868e-16 0)
(3 7.22572e-16 0)
(3 1.26844e-15 0)
(3 1.27209e-15 0)
(3 1.60509e-15 0)
(3 1.71455e-15 0)
(3 1.89481e-15 0)
(3 1.68713e-15 0)
(3 1.92116e-15 0)
(3 1.41598e-15 0)
(3 -1.09314e-16 0)
(3 8.41356e-17 0)
(3 -1.01475e-16 0)
(3 -4.09534e-16 0)
(3 -7.78021e-16 0)
(3 -8.18869e-16 0)
(3 -5.56084e-16 0)
(3 -4.83946e-16 0)
(3 -2.28696e-16 0)
(3 -2.19975e-16 0)
(3 -5.74539e-16 0)
(3 -6.91504e-16 0)
(3 -7.92987e-16 0)
(3 -7.31707e-16 0)
(3 -8.52362e-16 0)
(3 8.31674e-16 0)
(3 1.4608e-15 0)
(3 1.62588e-15 0)
(3 1.56526e-15 0)
(3 1.21976e-15 0)
(3 1.29186e-15 0)
(3 7.73235e-16 0)
(3 4.4283e-16 0)
(3 2.3295e-16 0)
(1.4928 1.27867 0)
(2.08423 1.26083 0)
(2.32769 1.58408 0)
(2.2801 0.806061 0)
(2.40967 0.268765 0)
(2.58553 -0.115562 0)
(2.6656 -0.223688 0)
(2.62959 -0.231055 0)
(2.4968 -0.245627 0)
(2.41918 -0.371199 0)
(2.43715 -0.407672 0)
(2.46286 -0.293728 0)
(2.44363 -0.17779 0)
(2.42633 -0.101471 0)
(2.38155 -0.081404 0)
(2.34691 -0.0904681 0)
(2.35333 -0.0755781 0)
(2.38742 -0.0277084 0)
(2.40794 -0.0153527 0)
(2.403 -0.0221367 0)
(2.40731 -0.0240781 0)
(2.40758 -0.0119434 0)
(2.39881 -0.00112181 0)
(2.39161 -0.00154506 0)
(2.38725 -0.0059856 0)
(2.39774 -0.0104873 0)
(2.40119 -0.0103906 0)
(2.39884 -0.00822903 0)
(2.39188 -0.00283783 0)
(2.38729 -0.00103969 0)
(2.3874 -0.00203898 0)
(2.39403 -0.00368436 0)
(2.16974 0.0139153 0)
(0.926593 -0.00741227 0)
(0.782149 -0.0351523 0)
(0.838223 -0.052073 0)
(0.90663 -0.0585653 0)
(0.974959 -0.058336 0)
(1.03458 -0.0506466 0)
(1.08496 -0.042433 0)
(1.1321 -0.0379348 0)
(1.18087 -0.0361638 0)
(1.23026 -0.034257 0)
(1.27858 -0.0296099 0)
(1.32098 -0.0239901 0)
(1.35583 -0.019889 0)
(1.38509 -0.0168194 0)
(1.41285 -0.0143139 0)
(1.44169 -0.0120519 0)
(1.47327 -0.0106481 0)
(1.50907 -0.0103143 0)
(1.54608 -0.00998722 0)
(1.57685 -0.00881576 0)
(1.60085 -0.00721671 0)
(1.6221 -0.00307284 0)
(1.64036 0.00309895 0)
(1.65918 0.00683545 0)
(1.68005 0.00793397 0)
(1.70737 0.00706604 0)
(1.73793 0.00448693 0)
(1.76311 0.000680012 0)
(1.78569 -0.00115436 0)
(1.80691 -0.000800025 0)
(1.82338 0.00148743 0)
(1.83763 0.00405981 0)
(1.85385 0.00545534 0)
(1.87212 0.00594008 0)
(1.89141 0.00616109 0)
(1.91312 0.00457755 0)
(1.9333 0.00156288 0)
(1.95354 0.000220602 0)
(1.97116 -4.68505e-06 0)
(1.97945 0.00234731 0)
(1.9833 0.00663315 0)
(1.99367 0.00987687 0)
(2.01017 0.0105839 0)
(2.02791 0.0107983 0)
(2.05024 0.0104174 0)
(2.07776 0.00859259 0)
(2.09867 0.00666961 0)
(2.11834 0.0059947 0)
(2.13704 0.00536937 0)
(2.15102 0.00515775 0)
(2.15517 0.00604722 0)
(2.15173 0.00734793 0)
(2.15386 0.00825896 0)
(2.16785 0.00835189 0)
(2.18339 0.00825779 0)
(2.19934 0.00785475 0)
(2.21727 0.00704247 0)
(2.23524 0.00634884 0)
(2.25339 0.00621663 0)
(2.27058 0.00602809 0)
(2.28266 0.00609851 0)
(2.27903 0.00732254 0)
(2.2837 0.0089342 0)
(1.75047 1.11836 0)
(2.31264 0.704097 0)
(2.5462 0.447016 0)
(2.60679 0.224078 0)
(2.69992 -0.210779 0)
(2.70257 -0.570066 0)
(2.72185 -0.59251 0)
(2.73675 -0.579731 0)
(2.72288 -0.539841 0)
(2.67834 -0.513832 0)
(2.6346 -0.469543 0)
(2.56418 -0.330198 0)
(2.49518 -0.228683 0)
(2.45977 -0.163123 0)
(2.44805 -0.0956705 0)
(2.44144 -0.0737506 0)
(2.43417 -0.039432 0)
(2.43692 0.0089269 0)
(2.44856 0.0149195 0)
(2.44495 -0.000201984 0)
(2.43567 -0.00929322 0)
(2.42652 -0.0115001 0)
(2.41448 -0.00215585 0)
(2.41055 0.000555592 0)
(2.40797 -0.00629631 0)
(2.41913 -0.0225535 0)
(2.43324 -0.0278911 0)
(2.43296 -0.0219475 0)
(2.42921 -0.0108528 0)
(2.42001 0.00940282 0)
(2.41516 0.0217442 0)
(2.41332 0.0157493 0)
(2.32556 -0.0634956 0)
(1.20042 -0.0245173 0)
(0.977719 -0.0671242 0)
(1.03083 -0.110635 0)
(1.0831 -0.0948937 0)
(1.12106 -0.0765433 0)
(1.15209 -0.054951 0)
(1.18463 -0.0431271 0)
(1.22112 -0.0329663 0)
(1.25868 -0.0265414 0)
(1.29364 -0.023569 0)
(1.32783 -0.0260741 0)
(1.36426 -0.0291627 0)
(1.39896 -0.0310935 0)
(1.42922 -0.0294994 0)
(1.45488 -0.023995 0)
(1.4794 -0.0159515 0)
(1.50537 -0.0085639 0)
(1.53311 -0.00673968 0)
(1.56445 -0.0116228 0)
(1.59631 -0.0181392 0)
(1.62213 -0.0196212 0)
(1.64328 -0.0172525 0)
(1.66315 -0.00929491 0)
(1.68147 0.00339111 0)
(1.7014 0.0154822 0)
(1.72367 0.0221196 0)
(1.74563 0.0212881 0)
(1.7688 0.015239 0)
(1.79141 0.00860439 0)
(1.81268 0.00292979 0)
(1.83343 0.00160842 0)
(1.85284 0.00652784 0)
(1.86816 0.0161642 0)
(1.88069 0.0232049 0)
(1.89602 0.0241852 0)
(1.91435 0.02114 0)
(1.93482 0.0145697 0)
(1.95468 0.00545274 0)
(1.97196 -0.00430116 0)
(1.98644 -0.0086563 0)
(1.99837 -0.00204405 0)
(2.00904 0.0116404 0)
(2.01971 0.0247225 0)
(2.03454 0.0305835 0)
(2.05168 0.0320403 0)
(2.07389 0.02871 0)
(2.09561 0.0232122 0)
(2.11548 0.0192821 0)
(2.13496 0.0149576 0)
(2.15209 0.00907432 0)
(2.16415 0.00470773 0)
(2.168 0.00961046 0)
(2.16699 0.0205385 0)
(2.17365 0.0258939 0)
(2.18899 0.025862 0)
(2.20507 0.0251017 0)
(2.22287 0.0224761 0)
(2.24189 0.0181134 0)
(2.25935 0.0149707 0)
(2.27569 0.0117724 0)
(2.28902 0.00751226 0)
(2.29089 0.0112912 0)
(2.29188 0.0234531 0)
(1.69049 1.02007 0)
(2.00232 0.908023 0)
(2.30974 0.658362 0)
(2.53447 0.38606 0)
(2.65432 0.117584 0)
(2.66426 -0.144829 0)
(2.68523 -0.154658 0)
(2.69671 -0.164212 0)
(2.79631 -0.285179 0)
(2.78649 -0.437327 0)
(2.78401 -0.468277 0)
(2.73464 -0.469931 0)
(2.65344 -0.44321 0)
(2.62413 -0.375094 0)
(2.63266 -0.290651 0)
(2.64623 -0.238058 0)
(2.62903 -0.181784 0)
(2.57442 -0.0831193 0)
(2.54019 -0.057878 0)
(2.51789 -0.0626879 0)
(2.48992 -0.0426897 0)
(2.4845 -0.0125538 0)
(2.48056 0.011324 0)
(2.47499 0.0193688 0)
(2.47257 0.0149129 0)
(2.47522 0.000935239 0)
(2.48545 -0.0212453 0)
(2.4891 -0.0323424 0)
(2.48798 -0.0323274 0)
(2.4866 -0.019675 0)
(2.46768 -0.0192328 0)
(2.45487 -0.0511073 0)
(2.19613 -0.386944 0)
(1.70072 -0.295945 0)
(1.27291 -0.117135 0)
(1.27219 -0.0457067 0)
(1.31342 -0.0648791 0)
(1.33326 -0.0962668 0)
(1.3456 -0.0926323 0)
(1.35651 -0.086308 0)
(1.38092 -0.0766709 0)
(1.40518 -0.0699249 0)
(1.42482 -0.0635386 0)
(1.44188 -0.0547453 0)
(1.46257 -0.0487555 0)
(1.48692 -0.045254 0)
(1.51316 -0.0444656 0)
(1.53713 -0.0431833 0)
(1.55832 -0.0396516 0)
(1.57855 -0.031019 0)
(1.59813 -0.0194464 0)
(1.621 -0.012498 0)
(1.64504 -0.0107666 0)
(1.66865 -0.0116875 0)
(1.6901 -0.0124186 0)
(1.71008 -0.0111319 0)
(1.72967 -0.00566726 0)
(1.7485 0.00277637 0)
(1.76502 0.0110942 0)
(1.77863 0.016275 0)
(1.79529 0.014902 0)
(1.81539 0.0102576 0)
(1.83638 0.00683968 0)
(1.85758 0.00523474 0)
(1.87774 0.00555849 0)
(1.89684 0.0103837 0)
(1.91299 0.0211684 0)
(1.92281 0.0326736 0)
(1.93097 0.0362441 0)
(1.94524 0.031009 0)
(1.96104 0.0225457 0)
(1.97874 0.0139852 0)
(1.99874 0.00650596 0)
(2.01693 0.00428241 0)
(2.03427 0.00927436 0)
(2.04873 0.0239107 0)
(2.05676 0.0396669 0)
(2.06659 0.0463239 0)
(2.08407 0.0456973 0)
(2.10226 0.0413283 0)
(2.12019 0.0357283 0)
(2.13717 0.0297935 0)
(2.15221 0.0242232 0)
(2.16657 0.0204365 0)
(2.18061 0.0198675 0)
(2.19006 0.0266372 0)
(2.19229 0.0382219 0)
(2.2005 0.0417068 0)
(2.21582 0.0400734 0)
(2.2303 0.03798 0)
(2.24497 0.0355604 0)
(2.25992 0.0325942 0)
(2.27412 0.0285852 0)
(2.28586 0.0234915 0)
(2.29504 0.023964 0)
(2.30689 0.0336333 0)
(1.59707 0.984143 0)
(1.87609 0.879473 0)
(2.17062 0.653864 0)
(2.34459 0.507873 0)
(2.41015 0.41156 0)
(2.54535 0.15916 0)
(2.62515 -0.0296801 0)
(2.65209 -0.113301 0)
(2.72689 -0.287025 0)
(2.73935 -0.399559 0)
(2.76385 -0.420953 0)
(2.76803 -0.475539 0)
(2.75821 -0.482119 0)
(2.73808 -0.475842 0)
(2.73371 -0.445191 0)
(2.73978 -0.410577 0)
(2.72643 -0.366185 0)
(2.68024 -0.272178 0)
(2.63659 -0.216308 0)
(2.60897 -0.19009 0)
(2.58234 -0.137036 0)
(2.56716 -0.0928756 0)
(2.55976 -0.0613799 0)
(2.54948 -0.0192951 0)
(2.54105 -0.00554207 0)
(2.52703 -0.00901875 0)
(2.52135 -0.00710825 0)
(2.53011 0.00397349 0)
(2.53394 0.011326 0)
(2.53007 -0.00470807 0)
(2.49804 -0.0675157 0)
(2.3534 -0.247146 0)
(1.98276 -0.55549 0)
(1.931 -0.636868 0)
(1.64203 -0.361453 0)
(1.4704 -0.148163 0)
(1.44109 -0.0734994 0)
(1.45703 -0.0443042 0)
(1.48095 -0.0512729 0)
(1.49471 -0.0631214 0)
(1.51809 -0.0642391 0)
(1.5357 -0.0584021 0)
(1.54803 -0.046538 0)
(1.55222 -0.0340124 0)
(1.56034 -0.0268263 0)
(1.57889 -0.0258119 0)
(1.6014 -0.0242154 0)
(1.62443 -0.0229252 0)
(1.64419 -0.0222864 0)
(1.66271 -0.0199924 0)
(1.67788 -0.0132914 0)
(1.6906 -0.00409882 0)
(1.7077 0.00236884 0)
(1.72704 0.00643649 0)
(1.7465 0.0102922 0)
(1.7669 0.0121795 0)
(1.78754 0.0117637 0)
(1.80679 0.0108494 0)
(1.8242 0.0116133 0)
(1.83461 0.0162021 0)
(1.84014 0.0197539 0)
(1.85389 0.0190514 0)
(1.87312 0.0189295 0)
(1.89263 0.0194495 0)
(1.91258 0.019887 0)
(1.93235 0.0194582 0)
(1.95083 0.019254 0)
(1.96406 0.0222525 0)
(1.96773 0.0282899 0)
(1.97178 0.0300147 0)
(1.98628 0.0285839 0)
(2.0032 0.0287994 0)
(2.02044 0.0286586 0)
(2.04109 0.0272597 0)
(2.06146 0.0270745 0)
(2.07957 0.0283654 0)
(2.0942 0.0349189 0)
(2.09914 0.0454282 0)
(2.10406 0.0496173 0)
(2.11703 0.0472046 0)
(2.13186 0.0435935 0)
(2.14569 0.0394501 0)
(2.16007 0.0357228 0)
(2.17645 0.0342662 0)
(2.19338 0.0337119 0)
(2.20925 0.0352605 0)
(2.21874 0.0437664 0)
(2.21801 0.0570063 0)
(2.2236 0.0601847 0)
(2.23898 0.0567831 0)
(2.25371 0.050182 0)
(2.26785 0.0444387 0)
(2.2808 0.0399122 0)
(2.29234 0.0364126 0)
(2.30474 0.0384886 0)
(2.32479 0.0441741 0)
(1.55616 0.942155 0)
(1.80492 0.848495 0)
(2.01202 0.71561 0)
(2.13598 0.645338 0)
(2.3096 0.458525 0)
(2.43048 0.248827 0)
(2.48203 0.207628 0)
(2.52362 0.138286 0)
(2.6058 -0.0243608 0)
(2.64683 -0.177832 0)
(2.67401 -0.234857 0)
(2.69236 -0.23677 0)
(2.70764 -0.291504 0)
(2.71694 -0.370365 0)
(2.73442 -0.404702 0)
(2.74777 -0.41908 0)
(2.74308 -0.415318 0)
(2.72917 -0.402286 0)
(2.70097 -0.374857 0)
(2.67234 -0.332739 0)
(2.64798 -0.262109 0)
(2.63157 -0.194345 0)
(2.63436 -0.171891 0)
(2.61782 -0.119467 0)
(2.5992 -0.0814223 0)
(2.57226 -0.0454016 0)
(2.55648 -0.0341669 0)
(2.55812 -0.0111057 0)
(2.56294 -0.0044801 0)
(2.51432 -0.0630981 0)
(2.36525 -0.247565 0)
(2.04023 -0.546254 0)
(1.94279 -0.604303 0)
(1.9637 -0.66635 0)
(1.92778 -0.611738 0)
(1.76813 -0.398071 0)
(1.60902 -0.185231 0)
(1.54133 -0.0993232 0)
(1.52652 -0.0504178 0)
(1.55359 -0.0445565 0)
(1.58352 -0.0597834 0)
(1.605 -0.0651154 0)
(1.61865 -0.0590336 0)
(1.62056 -0.0382001 0)
(1.62173 -0.0195965 0)
(1.63835 -0.0137713 0)
(1.65986 -0.0145537 0)
(1.68356 -0.0204673 0)
(1.70471 -0.0224288 0)
(1.72362 -0.0202154 0)
(1.73975 -0.0126668 0)
(1.75097 0.000165082 0)
(1.75975 0.0119175 0)
(1.77584 0.0151019 0)
(1.79518 0.0156358 0)
(1.81539 0.0157148 0)
(1.83596 0.0143873 0)
(1.85562 0.0127383 0)
(1.87363 0.0111393 0)
(1.88602 0.0121591 0)
(1.88925 0.0182477 0)
(1.89444 0.0246209 0)
(1.91027 0.0265935 0)
(1.92897 0.0274866 0)
(1.94835 0.0294005 0)
(1.96775 0.0319359 0)
(1.98666 0.0333646 0)
(2.00238 0.0342227 0)
(2.00866 0.0376159 0)
(2.00754 0.0438566 0)
(2.01816 0.0464531 0)
(2.03371 0.0466841 0)
(2.05011 0.0464588 0)
(2.06989 0.0453409 0)
(2.08976 0.0428507 0)
(2.10818 0.0416853 0)
(2.12613 0.0420515 0)
(2.13647 0.0463139 0)
(2.13494 0.0540047 0)
(2.13573 0.0569206 0)
(2.14575 0.0551506 0)
(2.15863 0.0543948 0)
(2.173 0.0549733 0)
(2.18966 0.0544913 0)
(2.20697 0.0532797 0)
(2.22384 0.0519875 0)
(2.23847 0.052808 0)
(2.24603 0.0604658 0)
(2.24489 0.0726683 0)
(2.24871 0.0744217 0)
(2.26138 0.068317 0)
(2.27488 0.0612194 0)
(2.28827 0.0549155 0)
(2.30237 0.0524457 0)
(2.31759 0.0541283 0)
(2.34237 0.0586787 0)
(1.53583 0.889029 0)
(1.73505 0.827573 0)