/*--------------------------------*- C++ -*----------------------------------*\
  =========                 |
  \\      /  F ield         | OpenFOAM: The Open Source CFD Toolbox
   \\    /   O peration     | Website:  https://openfoam.org
    \\  /    A nd           | Version:  7
     \\/     M anipulation  |
\*---------------------------------------------------------------------------*/
FoamFile
{
    version     2.0;
    format      ascii;
    class       volScalarField;
    location    "3.7";
    object      T;
}
// * * * * * * * * * * * * * * * * * * * * * * * * * * * * * * * * * * * * * //

dimensions      [0 0 0 1 0 0 0];

internalField   nonuniform List<scalar> 
4032
(
1
1
1
1
1
1
1
1
1
1
1
1.1306
2.38643
2.71793
2.73071
2.74655
2.75943
2.77077
2.78089
2.79041
2.79968
2.8078
2.81395
2.81782
1
1
1
1
1
1
1
1
1
1
1
1.11262
2.3705
2.71633
2.72972
2.74484
2.75756
2.76877
2.77874
2.788
2.79689
2.80449
2.81
2.81342
1
1
1
1
1
1
1
1
1
1
1
1.05407
2.32703
2.71128
2.72537
2.74067
2.75352
2.76461
2.77431
2.7832
2.79184
2.7995
2.80516
2.80897
1
1
1
1
1
1
1
1
1
1
1
1.00257
2.26119
2.70269
2.71982
2.73522
2.74808
2.75879
2.76812
2.77662
2.78486
2.79191
2.79666
2.79936
1
1
1
1
1
1
1
1
1
1
1
1.00001
2.17381
2.6896
2.71212
2.72687
2.73969
2.74993
2.75853
2.76588
2.77264
2.77838
2.78219
2.78592
1
1
1
1
1
1
1
1
1
1
1
1
2.05225
2.6682
2.70236
2.71644
2.72897
2.73853
2.74626
2.75295
2.75908
2.7633
2.76327
2.75873
1
1
1
1
1
1
1
1
1
1
1
1
1.8872
2.62659
2.68495
2.70166
2.7153
2.72459
2.73088
2.73528
2.7371
2.73418
2.72745
2.7215
1
1
1
1
1
1
1
1
1
1
1
1
1.65781
2.54693
2.65537
2.68038
2.69686
2.70708
2.71243
2.71409
2.71136
2.70672
2.70276
2.71484
1
1
1
1
1
1
1
1
1
1
1
1
1.33287
2.41824
2.62902
2.65296
2.67207
2.68413
2.68878
2.68781
2.67989
2.66208
2.61171
2.51153
1
1
1
1
1
1
1
1
1
1
1
1
1.03294
2.28784
2.63007
2.62844
2.6388
2.65094
2.65645
2.65378
2.64155
2.60971
2.55407
2.39094
1
1
1
1
1
1
1
1
1
1
1
1
1.00021
2.09472
2.59375
2.6052
2.61372
2.61799
2.62005
2.61511
2.60015
2.56259
2.50001
2.31706
1
1
1
1
1
1
1
1
1
1
1
1
0.999998
1.75558
2.5112
2.58766
2.59586
2.59485
2.59089
2.58031
2.5599
2.52116
2.44872
2.291
1
1
1
1
1
1
1
1
1
1
1
1
1
1.28611
2.35762
2.5718
2.5697
2.56788
2.56117
2.54619
2.52067
2.48181
2.40613
2.28566
1
1
1
1
1
1
1
1
1
1
1
1
1
1.02212
2.17893
2.52432
2.53667
2.53647
2.53064
2.5152
2.48883
2.44571
2.37496
2.28371
1
1
1
1
1
1
1
1
1
1
1
1
1
1.00005
1.78281
2.43386
2.51621
2.51302
2.50509
2.48746
2.46064
2.41571
2.35363
2.2796
1
1
1
1
1
1
1
1
1
1
1
1
1
1
1.19161
2.2736
2.4991
2.48382
2.47339
2.45628
2.43039
2.39072
2.3387
2.2762
1
1
1
1
1
1
1
1
1
1
1
1
1
1
1.00865
2.06334
2.44349
2.43757
2.43403
2.42283
2.40209
2.36924
2.32559
2.2712
1
1
1
1
1
1
1
1
1
1
1
1
1
1
0.999991
1.54364
2.31805
2.41751
2.40833
2.39526
2.37585
2.3473
2.31059
2.26435
1
1
1
1
1
1
1
1
1
1
1
1
1
1
0.999996
1.0756
2.10132
2.39088
2.38115
2.36843
2.34939
2.32402
2.29262
2.25401
1
1
1
1
1
1
1
1
1
1
1
1
1
1
0.999999
1.0011
1.61768
2.26115
2.35785
2.34187
2.32364
2.30111
2.27391
2.24147
1
1
1
1
1
1
1
1
1
1
1
1
1
1
1
1
1.10902
2.05001
2.32895
2.31506
2.30225
2.28228
2.25712
2.22761
1
1
1
1
1
1
1
1
1
1
1
1
1
1
1
1
1.00247
1.53962
2.17771
2.29142
2.27458
2.25685
2.23541
2.21016
1
1
1
1
1
1
1
1
1
1
1
1
1
1
1
1
1.00001
1.08412
1.95499
2.26505
2.24715
2.23173
2.21368
2.19283
1
1
1
1
1
1
1
1
1
1
1
1
1
1
1
1
1
1.00156
1.41189
2.08981
2.22343
2.2048
2.18953
2.17189
1
1
1
1
1
1
1
1
1
1
1
1
1
1
1
1
1
1
1.0439
1.77718
2.18384
2.18167
2.16875
2.153
1
1
1
1
1
1
1
1
1
1
1
1
1
1
1
1
1
1
1.00055
1.23652
1.97941
2.16311
2.14624
2.12949
1
1
1
1
1
1
1
1
1
1
1
1
1
1
1
1
1
1
1
1.01301
1.52457
2.04096
2.13162
2.11206
1
1
1
1
1
1
1
1
1
1
1
1
1
1
1
1
1
1
1
1.00011
1.08388
1.76282
2.08585
2.0989
1
1
1
1
1
1
1
1
1
1
1
1
1
1
1
1
1
1
1
1
1.00189
1.25206
1.88471
2.07531
1
1
1
1
1
1
1
1
1
1
1
1
1
1
1
1
1
1
1
1
1.00001
1.01567
1.4397
1.94125
1
1
1
1
1
1
1
1
1
1
1
1
1
1
1
1
1
1
1
1
1
1.00017
1.05923
1.60706
1
1
1
1
1
1
1
1
1
1
1
1
1
1
1
1
1
1
1
1
1
1
1.00122
1.14538
1
1
1
1
1
1
1
1
1
1
1
1
1
1
1
1
1
1
1
1
1
1
1.00001
1.00567
1
1
1
1
1
1
1
1
1
1
1
1
1
1
1
1
1
1
1
1
1
1
1
1.00005
1
1
1
1
1
1
1
1
1
1
1
1
1
1
1
1
1
1
1
1
1
1
1
1
1
1
1
1
1
1
1
1
1
1
1
1
1
1
1
1
1
1
1
1
1
1
1
1
1
1
1
1
1
1
1
1
1
1
1
1
1
1
1
1
1
1
1
1
1
1
1
1
1
1
1
1
1
1
1
1
1
1
1
1
1
1
1
1
1
1
1
1
1
1
1
1
1
1
1
1
1
1
1
1
1
1
1
1
1
1
1
1
1
1
1
1
1
1
1
1
1
1
1
1
1
1
1
1
1
1
1
1
1
1
1
1
1
1
1
1
1
1
1
1
1.69067
1.18907
0.966618
0.999249
1.06242
1.14573
1.28495
1.44423
1.63518
1.67397
1.67019
1.6371
1.60565
1.62937
1.71706
1.78114
1.78286
1.76026
1.70812
1.6863
1.694
1.71507
1.72486
1.7229
1.71446
1.70637
1.69977
1.69673
2.0115
2.72377
2.83816
2.8294
2.8197
2.81166
2.80385
2.79239
2.77498
2.75573
2.73667
2.71882
2.70235
2.68601
2.6678
2.64819
2.62946
2.61339
2.60081
2.58869
2.57023
2.5456
2.52023
2.49769
2.48001
2.46992
2.4672
2.46144
2.44405
2.42439
2.40373
2.38559
2.37053
2.35931
2.34913
2.33546
2.32062
2.30506
2.28986
2.27637
2.26407
2.25335
2.24308
2.23059
2.21655
2.20037
2.1834
2.16883
2.15735
2.14797
2.14142
2.13553
2.12697
2.11578
2.09951
2.08227
2.0695
2.05964
2.05106
2.04483
2.03949
2.03149
2.02125
2.00542
1.98743
1.97564
1.96993
1.96088
1.92043
1.64084
1.51506
1.37961
1.2713
1.244
1.24705
1.27499
1.32879
1.37138
1.38139
1.40035
1.43173
1.47571
1.54291
1.62137
1.64813
1.6461
1.63314
1.62781
1.63861
1.66174
1.67552
1.67539
1.67364
1.67065
1.66808
1.66414
1.92328
2.64954
2.81731
2.808
2.79106
2.77539
2.76367
2.75188
2.73816
2.71932
2.69779
2.67674
2.65965
2.64843
2.63954
2.62419
2.60321
2.58127
2.56047
2.54496
2.53469
2.52408
2.50833
2.48858
2.46853
2.45114
2.43586
2.42362
2.41421
2.40468
2.39166
2.3763
2.35994
2.34389
2.32976
2.31748
2.30728
2.29612
2.28311
2.26872
2.25332
2.23879
2.22625
2.21616
2.20619
2.19454
2.18212
2.16811
2.15378
2.14119
2.13114
2.12191
2.11405
2.10569
2.09484
2.08289
2.07009
2.05773
2.04718
2.03845
2.03009
2.02252
2.01421
2.00314
1.99031
1.97759
1.96838
1.95672
2.03267
1.82068
1.67835
1.57193
1.48117
1.39821
1.3027
1.24851
1.25031
1.26289
1.26971
1.29279
1.33202
1.35626
1.37866
1.4258
1.46629
1.4951
1.52645
1.54723
1.5657
1.58432
1.59713
1.6001
1.60334
1.60596
1.60628
1.60625
1.6998
2.47502
2.72717
2.70326
2.68546
2.66997
2.6579
2.64538
2.63707
2.62746
2.60866
2.58729
2.56702
2.55292
2.5493
2.54874
2.53922
2.52213
2.49849
2.47369
2.45614
2.44645
2.44295
2.43677
2.42536
2.40934
2.38725
2.36551
2.35162
2.3435
2.33974
2.33412
2.32379
2.31082
2.29355
2.27656
2.26542
2.25712
2.25033
2.24103
2.22939
2.21299
2.19318
2.17848
2.16966
2.16377
2.1597
2.15204
2.1417
2.12799
2.11002
2.09365
2.08241
2.07399
2.06876
2.06442
2.05787
2.04927
2.03687
2.02207
2.00991
2.00036
1.99206
1.98616
1.97998
1.97267
1.96281
1.94483
2.10486
1.95215
1.80445
1.68222
1.61216
1.55297
1.47483
1.37182
1.32892
1.32531
1.31613
1.30039
1.29401
1.2914
1.29423
1.30702
1.33534
1.36973
1.41962
1.4599
1.47462
1.4886
1.50646
1.52044
1.53624
1.5492
1.55301
1.56669
1.64594
2.19717
2.5884
2.58516
2.55355
2.5333
2.52183
2.51018
2.50408
2.49995
2.48894
2.47365
2.45588
2.44051
2.43119
2.42857
2.42635
2.41969
2.41002
2.39388
2.37406
2.36037
2.35216
2.34751
2.34038
2.33012
2.31802
2.30233
2.28486
2.27331
2.2661
2.26126
2.25457
2.24617
2.23662
2.224
2.20918
2.19891
2.19162
2.18474
2.17696
2.16754
2.15423
2.13722
2.12547
2.11961
2.11524
2.11129
2.10448
2.09445
2.07933
2.05914
2.04267
2.0344
2.0295
2.0269
2.02439
2.02021
2.01325
1.99964
1.98066
1.96768
1.96196
1.95794
1.9554
1.95102
1.94486
1.92819
2.14694
2.02458
1.91293
1.7963
1.69473
1.63881
1.58958
1.52692
1.44082
1.38039
1.36693
1.35598
1.3411
1.32037
1.29822
1.295
1.29461
1.29932
1.322
1.36579
1.39674
1.41746
1.44324
1.46468
1.48076
1.49171
1.51614
1.6211
1.77332
1.96645
2.34107
2.46489
2.4684
2.4469
2.42782
2.40857
2.40153
2.39763
2.39628
2.38841
2.37674
2.36134
2.3467
2.33894
2.33435
2.33202
2.32829
2.32134
2.30919
2.29243
2.27864
2.26935
2.26116
2.25351
2.24645
2.23822
2.22669
2.21316
2.20293
2.19511
2.18778
2.18095
2.17448
2.16717
2.15704
2.14417
2.13322
2.12491
2.11751
2.11041
2.1027
2.09329
2.08202
2.07225
2.06606
2.06033
2.05312
2.04361
2.03149
2.01786
2.00485
1.99438
1.98764
1.98315
1.97965
1.97597
1.97059
1.96155
1.9486
1.93589
1.92871
1.92456
1.92098
1.91682
1.91178
1.89751
2.17909
2.07487
1.9795
1.8865
1.79653
1.70938
1.65044
1.61211
1.56259
1.49425
1.42959
1.41775
1.41302
1.39026
1.3545
1.33442
1.31619
1.30194
1.30242
1.30961
1.32034
1.33346
1.35744
1.39448
1.42539
1.46077
1.56613
1.77486
1.90546
1.94208
2.06265
2.28215
2.37977
2.40478
2.39074
2.36356
2.34433
2.336
2.33548
2.33822
2.33146
2.31951
2.30284
2.28884
2.28336
2.28067
2.28001
2.27533
2.26556
2.25074
2.23214
2.21876
2.21136
2.20566
2.20041
2.19432
2.18596
2.17273
2.15714
2.14656
2.13945
2.13335
2.12779
2.12212
2.11424
2.10136
2.08751
2.07868
2.07225
2.06678
2.06158
2.05539
2.04565
2.03195
2.0209
2.01333
2.0057
1.99723
1.98894
1.98141
1.97309
1.96242
1.95086
1.94214
1.93596
1.93028
1.92455
1.91919
1.91399
1.90733
1.89814
1.88971
1.88415
1.8787
1.87231
1.85849
2.19537
2.11055
2.02542
1.9402
1.86894
1.79724
1.71642
1.65612
1.62619
1.58648
1.5307
1.47572
1.45581
1.44184
1.41447
1.37996
1.35532
1.33614
1.31517
1.30877
1.31219
1.31302
1.31595
1.32899
1.35635
1.46225
1.70594
1.84258
1.90973
1.91839
1.92566
2.03573
2.22978
2.34541
2.36667
2.3496
2.32484
2.31007
2.30561
2.31046
2.30982
2.301
2.28812
2.2704
2.25872
2.25408
2.25137
2.24678
2.23817
2.2278
2.21399
2.19861
2.18794
2.18123
2.17495
2.16814
2.15995
2.14905
2.13486
2.12164
2.11326
2.10661
2.10025
2.09351
2.08499
2.07334
2.06015
2.05102
2.0455
2.04049
2.03516
2.02879
2.019
2.0028
1.98573
1.97574
1.96955
1.9643
1.95949
1.95485
1.94869
1.93898
1.92332
1.90756
1.89815
1.89234
1.8883
1.88617
1.88456
1.88159
1.87469
1.86232
1.85107
1.84287
1.83572
1.82386
2.20507
2.13398
2.06115
1.9838
1.91527
1.85554
1.79003
1.72532
1.67376
1.63578
1.60223
1.56119
1.50816
1.4847
1.47092
1.44229
1.4074
1.38911
1.37035
1.34832
1.33545
1.32149
1.32183
1.33294
1.40532
1.59359
1.77059
1.80609
1.8257
1.83826
1.84721
1.86933
1.98232
2.17326
2.3103
2.33483
2.32365
2.30242
2.29283
2.28916
2.29192
2.28836
2.28009
2.26767
2.25024
2.23726
2.22984
2.2236
2.22095
2.21569
2.20727
2.19515
2.17862
2.16557
2.15795
2.15127
2.1443
2.13659
2.12702
2.11419
2.10064
2.09029
2.08157
2.07299
2.06454
2.05638
2.04678
2.03531
2.02898
2.02344
2.01632
2.00801
1.99774
1.98423
1.96846
1.95547
1.9487
1.94466
1.94265
1.9396
1.93304
1.92269
1.90608
1.88763
1.87452
1.86819
1.86553
1.86492
1.86526
1.86428
1.85894
1.84552
1.82773
1.81463
1.80834
1.79883
2.21063
2.1491
2.0836
2.0178
1.95708
1.89464
1.83475
1.78569
1.73577
1.68004
1.64181
1.61809
1.57827
1.52818
1.50899
1.49271
1.46041
1.42618
1.40909
1.39283
1.37057
1.34996
1.35205
1.41299
1.57775
1.74124
1.7696
1.76765
1.76577
1.7696
1.77485
1.78293
1.79865
1.88707
2.07756
2.24758
2.30678
2.30491
2.28932
2.27647
2.26996
2.26859
2.26943
2.26216
2.25027
2.23176
2.21841
2.21161
2.20667
2.20533
2.19894
2.18946
2.17509
2.15714
2.14605
2.13895
2.13302
2.12713
2.11923
2.10781
2.09182
2.07798
2.06867
2.06063
2.0531
2.04563
2.03667
2.02532
2.01304
2.00347
1.99578
1.98782
1.97951
1.97173
1.96327
1.95231
1.94064
1.9325
1.92606
1.91861
1.91078
1.90197
1.89177
1.88022
1.8689
1.86032
1.85588
1.85346
1.85058
1.84544
1.83879
1.82803
1.81323
1.80003
1.79432
1.78618
2.21334
2.15923
2.09952
2.04347
1.98881
1.93075
1.87352
1.82715
1.78226
1.73444
1.68715
1.65691
1.62474
1.58343
1.54739
1.53002
1.50906
1.47725
1.44924
1.43063
1.41107
1.41571
1.47161
1.62458
1.7568
1.78857
1.77832
1.76654
1.75972
1.76312
1.76559
1.75743
1.73914
1.73514
1.77458
1.9437
2.14842
2.26817
2.28457
2.27009
2.25643
2.24816
2.24657
2.24945
2.24279
2.23025
2.21211
2.20007
2.19362
2.18868
2.18475
2.17713
2.16683
2.15109
2.13552
2.127
2.12066
2.11441
2.10704
2.09776
2.08301
2.06677
2.05763
2.05116
2.0447
2.03728
2.02824
2.01557
1.99906
1.98693
1.9801
1.97417
1.96841
1.96307
1.95698
1.94903
1.93686
1.92187
1.90974
1.90097
1.893
1.88508
1.87854
1.87258
1.86572
1.85799
1.84986
1.84054
1.83107
1.82268
1.81508
1.80804
1.80119
1.79463
1.78836
1.77688
2.21117
2.16322
2.11107
2.06218
2.01106
1.95542
1.90796
1.86252
1.81603
1.77022
1.73297
1.69582
1.65825
1.62382
1.59282
1.56568
1.54157
1.51786
1.49057
1.46598
1.47114
1.53565
1.6922
1.81862
1.83304
1.81746
1.79816
1.78638
1.78112
1.7754
1.76623
1.75427
1.73529
1.72318
1.71447
1.72251
1.82033
2.01733
2.18871
2.24174
2.23725
2.22797
2.22321
2.22509
2.22532
2.21753
2.20553
2.18908
2.17714
2.17017
2.1641
2.15783
2.15077
2.14074
2.12592
2.11385
2.10609
2.09888
2.0917
2.0835
2.07162
2.05597
2.04529
2.03889
2.03295
2.0263
2.01838
2.00667
1.9893
1.97454
1.9674
1.96254
1.95946
1.95764
1.95185
1.94379
1.93089
1.91244
1.89649
1.88685
1.87976
1.87453
1.87064
1.86704
1.86226
1.85472
1.84118
1.82661
1.81656
1.8085
1.80089
1.79604
1.79325
1.79022
1.78534
1.7706
2.20509
2.16234
2.11796
2.07421
2.02678
1.97675
1.93433
1.89153
1.84587
1.80172
1.76813
1.7315
1.69379
1.65806
1.63296
1.60339
1.5731
1.5467
1.52229
1.52998
1.60699
1.76177
1.8808
1.88806
1.86886
1.84246
1.82419
1.81501
1.80745
1.79545
1.78267
1.76862
1.74957
1.72576
1.70873
1.70248
1.69888
1.72611
1.86665
2.04096
2.15789
2.18518
2.19265
2.19572
2.19694
2.19227
2.1848
2.17489
2.16051
2.14681
2.13837
2.13188
2.12575
2.11948
2.11145
2.1012
2.08999
2.08021
2.07221
2.06439
2.05502
2.04296
2.03058
2.02126
2.01485
2.00926
2.0031
1.99512
1.98322
1.96765
1.95625
1.95086
1.9464
1.94099
1.93503
1.92847
1.91955
1.90375
1.88577
1.87594
1.87127
1.86767
1.86413
1.8594
1.85224
1.84026
1.82494
1.81234
1.80408
1.79833
1.79445
1.79076
1.78621
1.7798
1.77183
1.75644
2.19506
2.15754
2.11826
2.07918
2.03559
1.99297
1.95383
1.91349
1.8686
1.83127
1.79642
1.76087
1.72336
1.69113
1.66356
1.63476
1.60488
1.57836
1.59029
1.677
1.81709
1.93221
1.93693
1.92213
1.90003
1.87317
1.84937
1.83745
1.82698
1.81463
1.80178
1.78794
1.77041
1.74594
1.72276
1.70461
1.691
1.68484
1.686
1.73379
1.87959
2.03535
2.11843
2.14083
2.15657
2.16032
2.15421
2.14808
2.13952
2.12608
2.11108
2.1022
2.09629
2.09124
2.0869
2.08103
2.07237
2.06108
2.05019
2.04134
2.03343
2.02533
2.01554
2.00376
1.99389
1.98798
1.98299
1.97774
1.97143
1.96191
1.94827
1.93603
1.92854
1.92285
1.91679
1.90978
1.90151
1.89185
1.88017
1.86894
1.86242
1.85824
1.85358
1.84741
1.83839
1.82516
1.80982
1.79857
1.79385
1.79113
1.7881
1.78368
1.77761
1.76885
1.75898
1.7426
2.18132
2.1492
2.11618
2.08065
2.04132
2.00505
1.96905
1.92957
1.88791
1.85528
1.82085
1.78665
1.75032
1.72118
1.68875
1.66172
1.63885
1.66072
1.76825
1.8901
1.96764
1.97602
1.95969
1.94309
1.92677
1.90469
1.87622
1.85703
1.84453
1.83135
1.81773
1.80362
1.7873
1.76604
1.7396
1.71686
1.69967
1.68219
1.67033
1.66341
1.67148
1.74246
1.88306
2.00944
2.08039
2.10268
2.1203
2.11725
2.11054
2.10007
2.08415
2.07244
2.0666
2.06275
2.05972
2.05553
2.04943
2.03961
2.0263
2.01508
2.00835
2.00282
1.9964
1.98702
1.97424
1.96454
1.95997
1.95651
1.95291
1.94766
1.93794
1.9231
1.90962
1.90146
1.89561
1.88936
1.88298
1.87742
1.87094
1.86124
1.85099
1.8445
1.83901
1.83258
1.82385
1.8106
1.7959
1.79053
1.7879
1.78447
1.78041
1.77509
1.76799
1.75734
1.74447
1.72845
2.16799
2.14007
2.11114
2.07885
2.04401
2.01159
1.97802
1.93958
1.90456
1.87373
1.84101
1.80595
1.77393
1.74166
1.71504
1.69989
1.73543
1.8681
1.99171
2.01576
2.00766
1.98755
1.9729
1.9638
1.95027
1.93072
1.90229
1.87553
1.85938
1.84446
1.82903
1.81339
1.79678
1.77767
1.75408
1.72886
1.70949
1.69359
1.67819
1.66046
1.65028
1.64114
1.65385
1.73294
1.8704
1.9816
2.04704
2.06404
2.07493
2.06905
2.05641
2.04305
2.03425
2.03172
2.0303
2.02784
2.02334
2.01481
1.9996
1.98578
1.98011
1.976
1.97181
1.96637
1.95707
1.94309
1.93385
1.93043
1.92785
1.92445
1.91874
1.90877
1.8936
1.87971
1.87239
1.86836
1.86508
1.86161
1.85681
1.84869
1.83581
1.82484
1.81922
1.81429
1.8076
1.79845
1.78959
1.78031
1.77175
1.7677
1.76503
1.76248
1.75774
1.74785
1.7334
1.71805
2.15094
2.12748
2.1017
2.07271
2.04255
2.01291
1.98142
1.94631
1.91693
1.88742
1.85497
1.82099
1.78993
1.76074
1.76105
1.81405
1.93556
2.06348
2.0875
2.06494
2.02742
2.00126
1.98934
1.98137
1.96677
1.94695
1.92068
1.89185
1.87221
1.85627
1.84016
1.82351
1.80552
1.78533
1.76188
1.7373
1.71743
1.70085
1.6858
1.67006
1.65248
1.63493
1.62098
1.60688
1.62688
1.72236
1.86125
1.95603
2.00452
2.01952
2.0263
2.01679
2.00434
2.0007
1.99815
1.99575
1.99231
1.98546
1.97113
1.95587
1.95009
1.94691
1.94406
1.94081
1.93511
1.92347
1.90927
1.90113
1.89669
1.89344
1.89035
1.88577
1.87785
1.86465
1.8514
1.84651
1.84426
1.84172
1.83806
1.83176
1.81954
1.8051
1.79686
1.79231
1.7883
1.78504
1.78013
1.76943
1.75705
1.75139
1.74787
1.74413
1.74021
1.73497
1.72794
1.71359
2.13448
2.11387
2.09051
2.06464
2.03879
2.01146
1.98179
1.95166
1.92531
1.89601
1.86292
1.83214
1.80769
1.82247
1.90731
2.01709
2.09898
2.11635
2.10207
2.07504
2.04421
2.01772
2.00352
1.99183
1.97526
1.955
1.93115
1.90345
1.88136
1.86392
1.84667
1.82931
1.81096
1.79065
1.76688
1.74142
1.72095
1.70464
1.68929
1.67432
1.65821
1.64003
1.6191
1.59781
1.58225
1.57766
1.61086
1.71474
1.83774
1.92753
1.96128
1.97242
1.9732
1.96973
1.96565
1.9627
1.95806
1.95203
1.9402
1.92659
1.9201
1.91728
1.91492
1.91221
1.90807
1.89959
1.88425
1.87065
1.86463
1.86115
1.85839
1.85599
1.85303
1.84721
1.83651
1.82462
1.8186
1.81622
1.81396
1.80997
1.80113
1.78662
1.77475
1.77032
1.76898
1.76785
1.76492
1.75756
1.74419
1.73382
1.72919
1.72621
1.72344
1.72102
1.71795
1.70525
2.11322
2.0952
2.07419
2.05249
2.0305
2.00609
1.97845
1.95307
1.92669
1.89713
1.86857
1.85078
1.88584
2.00196
2.12271
2.14868
2.14102
2.12045
2.10025
2.08442
2.06264
2.03423
2.01339
1.99758
1.98072
1.96121
1.9392
1.91348
1.88811
1.86837
1.84996
1.83162
1.81283
1.79338
1.77264
1.74926
1.72583
1.70676
1.69057
1.67479
1.65886
1.64244
1.62363
1.60271
1.5791
1.55994
1.54836
1.55268
1.59533
1.70635
1.81197
1.89167
1.91539
1.92332
1.9336
1.93172
1.92585
1.91855
1.9071
1.89709
1.8912
1.88745
1.8848
1.88205
1.87842
1.87217
1.85961
1.84302
1.83346
1.82958
1.82728
1.82595
1.82487
1.82299
1.81762
1.80619
1.79427
1.78779
1.78378
1.78054
1.77664
1.77048
1.76262
1.75432
1.74867
1.74676
1.74551
1.74162
1.73218
1.72206
1.7144
1.70866
1.70603
1.70571
1.70427
1.69284
2.09427
2.07756
2.05883
2.04023
2.02034
1.99866
1.9732
1.95168
1.92508
1.89764
1.89784
1.95355
2.0734
2.18708
2.20761
2.18063
2.1415
2.11842
2.10578
2.09547
2.07608
2.04836
2.02041
2.00011
1.98255
1.96369
1.94263
1.91912
1.89264
1.86856
1.849
1.83056
1.81187
1.79302
1.77398
1.75289
1.72911
1.70625
1.68766
1.6714
1.65577
1.63997
1.62335
1.6049
1.58201
1.5603
1.5421
1.53022
1.5227
1.53258
1.58575
1.68843
1.7823
1.84118
1.87275
1.89094
1.89474
1.88758
1.8766
1.86863
1.86292
1.85787
1.854
1.8507
1.84696
1.8421
1.83431
1.82154
1.80781
1.80115
1.79805
1.79638
1.79563
1.79467
1.79203
1.78483
1.77265
1.76144
1.75522
1.75167
1.74941
1.74792
1.7458
1.7415
1.73401
1.72609
1.71971
1.71503
1.71139
1.70711
1.70107
1.69383
1.68829
1.68474
1.67961
1.67403
2.08259
2.06405
2.04574
2.02792
2.00972
1.98807
1.96478
1.94444
1.92924
1.94264
2.03089
2.14497
2.20922
2.23654
2.22096
2.18805
2.15093
2.12248
2.10741
2.09722
2.0789
2.05382
2.02606
2.00137
1.98213
1.96385
1.9435
1.92099
1.89611
1.86999
1.8464
1.82715
1.80941
1.79194
1.77401
1.75393
1.7307
1.70659
1.68597
1.6687
1.65263
1.6365
1.61975
1.60169
1.58154
1.56072
1.54211
1.52719
1.51408
1.50736
1.50044
1.51107
1.56538
1.65546
1.74725
1.8062
1.83921
1.85382
1.853
1.84484
1.83623
1.8286
1.8231
1.81886
1.81458
1.81056
1.80644
1.80041
1.78847
1.77544
1.77318
1.77237
1.77072
1.7687
1.76539
1.75926
1.74973
1.73823
1.72968
1.72629
1.72573
1.72571
1.72571
1.72416
1.71736
1.70511
1.69441
1.68994
1.68855
1.68719
1.68444
1.67812
1.66849
1.66148
1.65833
1.66754
2.06763
2.04875
2.03291
2.01504
1.99778
1.9739
1.95714
1.95224
1.99489
2.11366
2.22888
2.25018
2.23532
2.22506
2.20982
2.18672
2.15918
2.12901
2.10869
2.09396
2.0766
2.05401
2.02768
2.00052
1.97794
1.95821
1.93816
1.91698
1.89442
1.87028
1.8459
1.82395
1.8042
1.78538
1.76682
1.74771
1.72711
1.70494
1.68328
1.66427
1.64728
1.63074
1.61447
1.59785
1.58019
1.56164
1.54379
1.52818
1.51478
1.5017
1.49035
1.48439
1.47532
1.48524
1.54187
1.63763
1.72839
1.79533
1.81323
1.8195
1.81434
1.80173
1.79066
1.78574
1.78329
1.78332
1.78236
1.7785
1.76936
1.75695
1.74562
1.73996
1.7378
1.73545
1.7328
1.73017
1.72556
1.71763
1.70924
1.70536
1.70409
1.70245
1.699
1.69609
1.6927
1.68498
1.67617
1.67083
1.66627
1.66176
1.65832
1.6543
1.64915
1.64576
1.65214
1.71362
2.05046
2.03508
2.01726
2.00148
1.98266
1.9677
1.97661
2.05586
2.18283
2.27912
2.29311
2.26179
2.22908
2.20763
2.19499
2.18173
2.15972
2.1317
2.10742
2.08805
2.07004
2.0493
2.02532
1.99908
1.9736
1.9508
1.92957
1.90908
1.88875
1.86772
1.84542
1.82252
1.80041
1.77935
1.75908
1.73983
1.72137
1.70216
1.68177
1.66177
1.64377
1.62695
1.61119
1.59612
1.58068
1.56438
1.54769
1.53212
1.51806
1.50464
1.49217
1.4786
1.4674
1.4553
1.45053
1.47051
1.53546
1.64144
1.72575
1.78371
1.79183
1.78663
1.77641
1.7689
1.76416
1.76122
1.75679
1.75154
1.74681
1.73907
1.72542
1.71537
1.7127
1.7111
1.70896
1.7052
1.70079
1.69619
1.69107
1.68622
1.68172
1.67724
1.6732
1.66971
1.66474
1.659
1.65479
1.65068
1.64441
1.63713
1.63354
1.63419
1.64238
1.66749
1.71532
1.81297
1.96225
2.02719
2.00962
1.98727
1.97608
2.01366
2.13212
2.24502
2.29986
2.30535
2.28282
2.25086
2.21951
2.19863
2.18622
2.17241
2.15238
2.12649
2.10183
2.08058
2.06073
2.04029
2.01809
1.99356
1.96815
1.94447
1.92275
1.90229
1.88247
1.86247
1.84129
1.81885
1.79628
1.77479
1.7547
1.73582
1.7179
1.69984
1.68039
1.66005
1.64114
1.62395
1.60836
1.59387
1.57969
1.56591
1.55217
1.53978
1.52802
1.5167
1.504
1.48917
1.47154
1.45411
1.44353
1.4362
1.43926
1.47315
1.55095
1.65712
1.72361
1.75851
1.76557
1.76308
1.75837
1.7525
1.74519
1.74007
1.73427
1.72496
1.71276
1.70103
1.69406
1.69101
1.68981
1.68925
1.6877
1.68444
1.67814
1.66717
1.65651
1.65407
1.65363
1.65117
1.64694
1.64233
1.63644
1.62962
1.62679
1.62349
1.62684
1.64724
1.69713
1.76569
1.82125
1.8604
1.71101
1.98674
1.9868
1.98962
2.06765
2.21153
2.30361
2.30786
2.29325
2.28103
2.26162
2.23897
2.21293
2.19434
2.18022
2.16312
2.14259
2.1179
2.09348
2.07236
2.05282
2.03276
2.01122
1.98799
1.96347
1.93987
1.91844
1.89862
1.87923
1.85928
1.83819
1.81597
1.79357
1.77212
1.75247
1.73409
1.71649
1.69924
1.68103
1.66159
1.64382
1.6281
1.61364
1.5998
1.58604
1.57243
1.55856
1.54574
1.53467
1.52556
1.51594
1.50512
1.49089
1.47414
1.45875
1.44619
1.43919
1.4369
1.44361
1.48378
1.56952
1.66944
1.71503
1.73957
1.74006
1.73571
1.73028
1.72954
1.72719
1.72065
1.70996
1.69799
1.68849
1.67941
1.67258
1.66905
1.6677
1.66584
1.66086
1.65194
1.64274
1.6338
1.62497
1.61989
1.61671
1.61515
1.61513
1.61428
1.61955
1.64243
1.68982
1.74948
1.80648
1.84494
1.87107
1.87206
1.25333
1.80333
1.92488
2.11951
2.28065
2.35193
2.34376
2.30959
2.27679
2.25904
2.24619
2.22836
2.20449
2.18695
2.17307
2.15488
2.13392
2.1113
2.08952
2.06927
2.04991
2.02986
2.00833
1.98534
1.96149
1.93859
1.9177
1.89838
1.87949
1.86009
1.8397
1.81824
1.79671
1.77589
1.75692
1.73952
1.72263
1.70616
1.69158
1.67871
1.66504
1.65207
1.64003
1.62795
1.61489
1.60089
1.58676
1.57346
1.56155
1.55099
1.54196
1.53269
1.52225
1.50893
1.49317
1.47588
1.4601
1.44568
1.43572
1.43754
1.45322
1.50277
1.58623
1.67419
1.72162
1.7205
1.72245
1.71821
1.7105
1.70313
1.70139
1.69884
1.69234
1.6841
1.67476
1.66536
1.66108
1.6583
1.65513
1.65003
1.64025
1.62546
1.60953
1.60295
1.6015
1.60168
1.60723
1.6348
1.68487
1.75412
1.80798
1.84211
1.86671
1.87037
1.86966
1.86245
1.01795
1.35557
1.99316
2.39848
2.42556
2.40254
2.37018
2.32907
2.29516
2.27639
2.26263
2.24281
2.2167
2.19821
2.18538
2.16376
2.14289
2.12444
2.10129
2.07705
2.05524
2.03411
2.01192
1.98862
1.96514
1.94279
1.92211
1.90277
1.88393
1.8649
1.84528
1.8248
1.80411
1.78388
1.76514
1.7483
1.73272
1.71797
1.7043
1.69101
1.67789
1.66557
1.65493
1.64527
1.63439
1.62081
1.60579
1.59087
1.57575
1.56075
1.54858
1.53997
1.53272
1.52415
1.51182
1.49599
1.48123
1.46761
1.45207
1.43747
1.43238
1.43501
1.45464
1.51339
1.60316
1.67931
1.73016
1.7272
1.7163
1.70993
1.70267
1.69379
1.68903
1.68527
1.67892
1.66934
1.66091
1.65481
1.64793
1.63908
1.62823
1.61669
1.60765
1.60163
1.60436
1.6254
1.67457
1.74749
1.80912
1.85891
1.86951
1.86893
1.86871
1.86661
1.86222
1.8518
1.0002
1.06676
2.31149
2.64266
2.55689
2.483
2.42906
2.3839
2.34922
2.32664
2.30746
2.28162
2.25174
2.2303
2.21726
2.20205
2.17844
2.15315
2.13318
2.11204
2.0901
2.06908
2.04751
2.02498
2.00205
1.97971
1.95865
1.93895
1.92004
1.9012
1.88182
1.86147
1.84053
1.81986
1.80003
1.78223
1.76741
1.75428
1.74003
1.72499
1.71107
1.6992
1.6889
1.67966
1.67039
1.65954
1.64517
1.62795
1.6099
1.59165
1.57509
1.56262
1.55411
1.54733
1.54041
1.52907
1.51272
1.49614
1.47956
1.46111
1.44538
1.43511
1.43251
1.43998
1.47262
1.54219
1.64217
1.69433
1.7234
1.72375
1.71869
1.71218
1.70739
1.70235
1.69471
1.6822
1.6697
1.65774
1.64611
1.63564
1.62864
1.6207
1.62086
1.63694
1.68142
1.75162
1.81896
1.86221
1.87576
1.88321
1.88087
1.88067
1.87816
1.87248
1.86592
1.85437
1
1.3442
2.5335
2.71297
2.64284
2.58936
2.53893
2.49414
2.45445
2.42232
2.3929
2.36036
2.32819
2.30381
2.28777
2.2703
2.24529
2.21469
2.18833
2.1654
2.14193
2.1195
2.09739
2.07427
2.05026
2.02652
2.00396
1.98265
1.96201
1.9414
1.92042
1.89871
1.87683
1.85562
1.83652
1.81982
1.80489
1.79121
1.77855
1.7665
1.75446
1.74267
1.73053
1.7175
1.70367
1.68988
1.67585
1.65985
1.64381
1.63013
1.61646
1.59986
1.58225
1.56654
1.55453
1.54376
1.53136
1.51894
1.50854
1.49733
1.47975
1.45877
1.44377
1.43545
1.4325
1.44297
1.48809
1.57225
1.66089
1.69361
1.71588
1.72553
1.7222
1.71687
1.7108
1.70096
1.68738
1.66956
1.65543
1.64389
1.64348
1.65683
1.70573
1.77599
1.84436
1.88222
1.90275
1.90984
1.91013
1.9062
1.89999
1.89426
1.88754
1.87988
1.87395
1.86392
1
1.58353
2.63691
2.75495
2.72292
2.68788
2.64805
2.61049
2.575
2.54304
2.51006
2.47321
2.43745
2.40884
2.38713
2.36298
2.33435
2.30259
2.27346
2.24932
2.22389
2.19905
2.17506
2.14982
2.12316
2.09669
2.07167
2.04808
2.02522
2.00249
1.97963
1.95641
1.93355
1.91191
1.89253
1.87547
1.8602
1.84618
1.83282
1.81956
1.80544
1.79047
1.77465
1.75823
1.74161
1.72578
1.71095
1.69588
1.68007
1.66287
1.64487
1.6251
1.6038
1.58624
1.57336
1.56304
1.55403
1.54432
1.53103
1.51469
1.49544
1.47484
1.45698
1.44344
1.43336
1.42981
1.43327
1.45541
1.51217
1.5984
1.69037
1.72294
1.72127
1.72126
1.72006
1.71268
1.70312
1.69059
1.67722
1.68566
1.73083
1.79659
1.87464
1.91774
1.93987
1.94582
1.94546
1.94071
1.93178
1.92184
1.91519
1.90991
1.90405
1.89763
1.89289
1.88469
1
1.59518
2.63429
2.74756
2.73244
2.71644
2.69315
2.67364
2.65442
2.6329
2.60558
2.57349
2.54237
2.51655
2.49317
2.46445
2.43017
2.39492
2.3632
2.33571
2.30838
2.28037
2.25217
2.22179
2.19083
2.16173
2.13484
2.10956
2.08495
2.06019
2.03502
2.00966
1.98529
1.96281
1.94263
1.92455
1.90806
1.89242
1.87656
1.86005
1.84271
1.82504
1.80713
1.78935
1.77223
1.7554
1.73802
1.71962
1.70055
1.68093
1.66127
1.64172
1.62241
1.60523
1.59185
1.58125
1.57081
1.55921
1.54508
1.52672
1.50433
1.48565
1.47151
1.45891
1.44904
1.44092
1.43598
1.43048
1.43441
1.46405
1.53715
1.62995
1.69507
1.73707
1.73525
1.73178
1.73058
1.74196
1.77526
1.8346
1.90519
1.94849
1.98162
1.98884
1.98711
1.97938
1.96801
1.95672
1.94659
1.93775
1.93209
1.9274
1.92211
1.9162
1.91149
1.90315
1
1.56721
2.62504
2.73737
2.72656
2.71597
2.70291
2.69399
2.68535
2.67327
2.65569
2.63328
2.60911
2.58428
2.55405
2.51855
2.48372
2.4511
2.42199
2.39465
2.3626
2.32953
2.2959
2.26343
2.23396
2.20652
2.17954
2.15249
2.12481
2.09631
2.06814
2.04174
2.01801
1.99665
1.97706
1.95857
1.94039
1.92182
1.90251
1.88316
1.86422
1.84618
1.82847
1.81
1.78988
1.76813
1.74659
1.72659
1.70811
1.68997
1.67107
1.65256
1.63724
1.62244
1.60569
1.58992
1.57606
1.56253
1.54772
1.53005
1.50893
1.49194
1.4825
1.47413
1.46546
1.45508
1.44374
1.43212
1.41715
1.41417
1.42502
1.47707
1.57248
1.66446
1.71527
1.76087
1.82667
1.89194
1.93379
1.97323
1.99864
2.01827
2.02056
2.01213
1.99799
1.98522
1.97479
1.96851
1.96209
1.95588
1.95064
1.94504
1.93918
1.93263
1.9256
1.91267
1
1.55136
2.61896
2.73193
2.72158
2.71277
2.70195
2.69454
2.68799
2.67927
2.66705
2.65085
2.63016
2.60338
2.57193
2.5397
2.50876
2.47974
2.45196
2.41944
2.38308
2.34665
2.31188
2.28114
2.25222
2.22398
2.19567
2.16667
2.13657
2.10626
2.07781
2.05225
2.02954
2.00888
1.98948
1.97046
1.95097
1.93075
1.91015
1.89051
1.87211
1.85453
1.83625
1.81589
1.79335
1.76959
1.7467
1.72601
1.70824
1.69281
1.67809
1.66214
1.64307
1.62369
1.60597
1.59002
1.57552
1.56053
1.54448
1.528
1.51292
1.49827
1.48341
1.47227
1.46331
1.45451
1.44349
1.42975
1.41513
1.40532
1.40064
1.40655
1.44211
1.54195
1.68424
1.83146
1.94357
2.02894
2.08725
2.10652
2.09154
2.07421
2.04773
2.02041
1.99989
1.98363
1.97391
1.96874
1.96476
1.96133
1.95814
1.9521
1.94609
1.93915
1.93097
1.91586
)
;

boundaryField
{
    inlet
    {
        type            fixedValue;
        value           uniform 1;
    }
    outlet
    {
        type            inletOutlet;
        inletValue      uniform 1;
        value           nonuniform List<scalar> 
32
(
1.96198
1.95723
1.94408
1.92666
1.89639
1.85785
1.82394
1.79941
1.7871
1.77692
1.76937
1.75568
1.7419
1.72814
1.71849
1.71316
1.70415
1.69174
1.67336
1.667
1.71272
1.81261
1.86081
1.87259
1.86204
1.85111
1.85414
1.8637
1.88451
1.90298
1.91206
1.91514
)
;
    }
    bottom
    {
        type            symmetryPlane;
    }
    top
    {
        type            symmetryPlane;
    }
    obstacle
    {
        type            zeroGradient;
    }
    defaultFaces
    {
        type            empty;
    }
}


// ************************************************************************* //
