/*--------------------------------*- C++ -*----------------------------------*\
  =========                 |
  \\      /  F ield         | OpenFOAM: The Open Source CFD Toolbox
   \\    /   O peration     | Website:  https://openfoam.org
    \\  /    A nd           | Version:  7
     \\/     M anipulation  |
\*---------------------------------------------------------------------------*/
FoamFile
{
    version     2.0;
    format      ascii;
    class       volScalarField;
    location    "3.5";
    object      rho;
}
// * * * * * * * * * * * * * * * * * * * * * * * * * * * * * * * * * * * * * //

dimensions      [1 -3 0 0 0 0 0];

internalField   nonuniform List<scalar> 
4032
(
1.40001
1.40001
1.40001
1.40001
1.40001
1.40001
1.40001
1.40001
1.40001
1.40001
1.40001
1.506
4.24131
5.45511
5.51482
5.59396
5.6637
5.72761
5.78432
5.83435
5.87887
5.91445
5.94127
5.96028
1.40001
1.40001
1.40001
1.40001
1.40001
1.40001
1.40001
1.40001
1.40001
1.40001
1.40001
1.48572
4.17992
5.44592
5.51058
5.58707
5.65548
5.71807
5.77363
5.82219
5.86469
5.89742
5.92065
5.93708
1.40001
1.40001
1.40001
1.40001
1.40001
1.40001
1.40001
1.40001
1.40001
1.40001
1.40001
1.41958
4.05656
5.43438
5.49331
5.56632
5.6336
5.69458
5.74858
5.79569
5.83755
5.8708
5.89463
5.91374
1.40001
1.40001
1.40001
1.40001
1.40001
1.40001
1.40001
1.40001
1.40001
1.40001
1.40001
1.40062
3.84964
5.40026
5.46352
5.53313
5.59964
5.65892
5.71167
5.75774
5.79832
5.8287
5.84749
5.86123
1.40001
1.40001
1.40001
1.40001
1.40001
1.40001
1.40001
1.40001
1.40001
1.40001
1.40001
1.40001
3.56145
5.34104
5.42952
5.49428
5.55875
5.61401
5.66173
5.70101
5.7339
5.75965
5.77606
5.79741
1.40001
1.40001
1.40001
1.40001
1.40001
1.40001
1.40001
1.40001
1.40001
1.40001
1.40001
1.40001
3.20343
5.25172
5.39304
5.45139
5.50947
5.55686
5.59695
5.63004
5.65812
5.68172
5.69158
5.68345
1.40001
1.40001
1.40001
1.40001
1.40001
1.40001
1.40001
1.40001
1.40001
1.40001
1.40001
1.40001
2.79089
5.12556
5.37518
5.42232
5.46808
5.5014
5.52464
5.54062
5.54591
5.53379
5.51611
5.50942
1.40001
1.40001
1.40001
1.40001
1.40001
1.40001
1.40001
1.40001
1.40001
1.40001
1.40001
1.40001
2.32052
4.94878
5.39393
5.40841
5.43277
5.44816
5.45028
5.44433
5.42377
5.3918
5.33757
5.3122
1.40001
1.40001
1.40001
1.40001
1.40001
1.40001
1.40001
1.40001
1.40001
1.40001
1.40001
1.40001
1.8246
4.693
5.42971
5.39664
5.40495
5.3991
5.37658
5.34351
5.28034
5.17553
4.8619
4.01108
1.40001
1.40001
1.40001
1.40001
1.40001
1.40001
1.40001
1.40001
1.40001
1.40001
1.40001
1.40001
1.45033
4.16405
5.38579
5.33607
5.34234
5.32983
5.29184
5.23114
5.12511
4.93479
4.60721
3.70814
1.40001
1.40001
1.40001
1.40001
1.40001
1.40001
1.40001
1.40001
1.40001
1.40001
1.40001
1.40001
1.40023
3.405
5.1546
5.2638
5.28106
5.25802
5.20641
5.11859
4.98255
4.7455
4.39924
3.56845
1.40001
1.40001
1.40001
1.40001
1.40001
1.40001
1.40001
1.40001
1.40001
1.40001
1.40001
1.40001
1.4
2.57931
4.92164
5.21674
5.21171
5.19326
5.13369
5.02488
4.86159
4.6143
4.22549
3.55277
1.40001
1.40001
1.40001
1.40001
1.40001
1.40001
1.40001
1.40001
1.40001
1.40001
1.40001
1.40001
1.4
1.7989
4.64525
5.25705
5.17818
5.11846
5.04351
4.9228
4.74635
4.50704
4.10842
3.57496
1.40001
1.40001
1.40001
1.40001
1.40001
1.40001
1.40001
1.40001
1.40001
1.40001
1.40001
1.40001
1.4
1.43215
3.86869
5.07225
5.06178
5.02882
4.95351
4.83207
4.65932
4.40969
4.04786
3.624
1.40001
1.40001
1.40001
1.40001
1.40001
1.40001
1.40001
1.40001
1.40001
1.40001
1.40001
1.40001
1.40001
1.39991
2.75682
4.8634
5.04923
4.99945
4.90513
4.76463
4.58835
4.33646
4.02306
3.67126
1.40001
1.40001
1.40001
1.40001
1.40001
1.40001
1.40001
1.40001
1.40001
1.40001
1.40001
1.40001
1.40001
1.39998
1.709
4.56546
5.1158
4.97631
4.84641
4.68827
4.51456
4.28211
4.01585
3.71355
1.40001
1.40001
1.40001
1.40001
1.40001
1.40001
1.40001
1.40001
1.40001
1.40001
1.40001
1.40001
1.40001
1.4
1.41398
3.61513
4.9241
4.86939
4.76502
4.62339
4.45788
4.24993
4.01613
3.74696
1.40001
1.40001
1.40001
1.40001
1.40001
1.40001
1.40001
1.40001
1.40001
1.40001
1.40001
1.40001
1.40001
1.4
1.3999
2.32989
4.73124
4.8652
4.75574
4.61322
4.44328
4.24464
4.02388
3.78149
1.40001
1.40001
1.40001
1.40001
1.40001
1.40001
1.40001
1.40001
1.40001
1.40001
1.40001
1.40001
1.40001
1.40001
1.39998
1.53659
3.92526
4.84073
4.72471
4.59696
4.43329
4.24576
4.03786
3.8171
1.40001
1.40001
1.40001
1.40001
1.40001
1.40001
1.40001
1.40001
1.40001
1.40001
1.40001
1.40001
1.40001
1.40001
1.4
1.40181
2.56846
4.6218
4.71086
4.59132
4.4361
4.25768
4.06348
3.86005
1.40001
1.40001
1.40001
1.40001
1.40001
1.40001
1.40001
1.40001
1.40001
1.40001
1.40001
1.40001
1.40001
1.40001
1.4
1.4
1.60557
3.88951
4.73917
4.61034
4.46338
4.28804
4.09937
3.90403
1.40001
1.40001
1.40001
1.40001
1.40001
1.40001
1.40001
1.40001
1.40001
1.40001
1.40001
1.40001
1.40001
1.40001
1.40001
1.4
1.40483
2.43934
4.51489
4.63059
4.48319
4.31073
4.12796
3.94085
1.40001
1.40001
1.40001
1.40001
1.40001
1.40001
1.40001
1.40001
1.40001
1.40001
1.40001
1.40001
1.40001
1.40001
1.40001
1.4
1.40002
1.55614
3.66942
4.67218
4.51628
4.34566
4.16746
3.98843
1.40001
1.40001
1.40001
1.40001
1.40001
1.40001
1.40001
1.40001
1.40001
1.40001
1.40001
1.40001
1.40001
1.40001
1.40001
1.40001
1.40001
1.40296
2.20535
4.29293
4.53572
4.37715
4.21067
4.03696
1.40001
1.40001
1.40001
1.40001
1.40001
1.40001
1.40001
1.40001
1.40001
1.40001
1.40001
1.40001
1.40001
1.40001
1.40001
1.40001
1.40001
1.40002
1.48608
3.1689
4.50544
4.43498
4.27604
4.10645
1.40001
1.40001
1.40001
1.40001
1.40001
1.40001
1.40001
1.40001
1.40001
1.40001
1.40001
1.40001
1.40001
1.40001
1.40001
1.40001
1.40001
1.40001
1.40127
1.86103
3.89895
4.47904
4.33324
4.16409
1.40001
1.40001
1.40001
1.40001
1.40001
1.40001
1.40001
1.40001
1.40001
1.40001
1.40001
1.40001
1.40001
1.40001
1.40001
1.40001
1.40001
1.40001
1.40001
1.42721
2.51104
4.22077
4.37041
4.22321
1.40001
1.40001
1.40001
1.40001
1.40001
1.40001
1.40001
1.40001
1.40001
1.40001
1.40001
1.40001
1.40001
1.40001
1.40001
1.40001
1.40001
1.40001
1.40001
1.4003
1.56649
3.22557
4.32189
4.28626
1.40001
1.40001
1.40001
1.40001
1.40001
1.40001
1.40001
1.40001
1.40001
1.40001
1.40001
1.40001
1.40001
1.40001
1.40001
1.40001
1.40001
1.40001
1.40001
1.40001
1.40441
1.90446
3.72234
4.30112
1.40001
1.40001
1.40001
1.40001
1.40001
1.40001
1.40001
1.40001
1.40001
1.40001
1.40001
1.40001
1.40001
1.40001
1.40001
1.40001
1.40001
1.40001
1.40001
1.40001
1.40003
1.43364
2.3579
3.99768
1.40001
1.40001
1.40001
1.40001
1.40001
1.40001
1.40001
1.40001
1.40001
1.40001
1.40001
1.40001
1.40001
1.40001
1.40001
1.40001
1.40001
1.40001
1.40001
1.40001
1.40001
1.40046
1.52276
2.841
1.40001
1.40001
1.40001
1.40001
1.40001
1.40001
1.40001
1.40001
1.40001
1.40001
1.40001
1.40001
1.40001
1.40001
1.40001
1.40001
1.40001
1.40001
1.40001
1.40001
1.40001
1.40001
1.40305
1.69457
1.40001
1.40001
1.40001
1.40001
1.40001
1.40001
1.40001
1.40001
1.40001
1.40001
1.40001
1.40001
1.40001
1.40001
1.40001
1.40001
1.40001
1.40001
1.40001
1.40001
1.40001
1.40001
1.40002
1.41303
1.40001
1.40001
1.40001
1.40001
1.40001
1.40001
1.40001
1.40001
1.40001
1.40001
1.40001
1.40001
1.40001
1.40001
1.40001
1.40001
1.40001
1.40001
1.40001
1.40001
1.40001
1.40001
1.40001
1.40013
1.40001
1.40001
1.40001
1.40001
1.40001
1.40001
1.40001
1.40001
1.40001
1.40001
1.40001
1.40001
1.40001
1.40001
1.40001
1.40001
1.40001
1.40001
1.40001
1.40001
1.40001
1.40001
1.40001
1.40001
1.40001
1.40001
1.40001
1.40001
1.40001
1.40001
1.40001
1.40001
1.40001
1.40001
1.40001
1.40001
1.40001
1.40001
1.40001
1.40001
1.40001
1.40001
1.40001
1.40001
1.40001
1.40001
1.40001
1.40001
1.40001
1.40001
1.40001
1.40001
1.40001
1.40001
1.40001
1.40001
1.40001
1.40001
1.40001
1.40001
1.40001
1.40001
1.40001
1.40001
1.40001
1.40001
1.40001
1.40001
1.40001
1.40001
1.40001
1.40001
1.40001
1.40001
1.40001
1.40001
1.40001
1.40001
1.40001
1.40001
1.40001
1.40001
1.40001
1.40001
1.40001
1.40001
1.40001
1.40001
1.40001
1.40001
1.40001
1.40001
1.40001
1.40001
1.40001
1.40001
1.40001
1.40001
1.40001
1.40001
1.40001
1.40001
1.40001
1.40001
1.40001
1.40001
1.40001
1.40001
1.40001
1.40001
1.40001
1.40001
1.40001
1.40001
1.40001
1.40001
1.40001
1.40001
1.40001
1.40001
1.40001
1.40001
1.40001
1.40001
1.40001
1.40001
1.40001
1.40001
1.40001
1.40001
1.40001
1.40001
1.40001
1.40001
1.40001
1.40001
1.40001
1.40001
1.40001
1.40001
1.40001
1.40001
1.40001
1.40001
1.31101
0.575446
0.230382
0.162052
0.190053
0.272809
0.369515
0.476327
0.61154
0.70412
0.792663
0.858626
0.921796
0.958187
0.969113
0.990701
1.0164
1.03429
1.05595
1.05743
1.05001
1.04191
1.04621
1.05531
1.0658
1.07894
1.08937
1.09266
1.09212
1.36881
2.55946
2.88118
2.93319
2.96439
2.98572
2.99901
3.00514
2.99904
2.98736
2.97512
2.96474
2.95641
2.94384
2.92182
2.89514
2.8703
2.85023
2.83438
2.81693
2.78803
2.74879
2.71089
2.68139
2.66483
2.65647
2.64202
2.60832
2.56866
2.52803
2.49644
2.472
2.45567
2.44157
2.4253
2.3999
2.36516
2.31971
2.27743
2.24791
2.22546
2.20895
2.19804
2.18134
2.15832
2.1269
2.08737
2.05347
2.0304
2.01241
2.00043
1.99246
1.97791
1.95693
1.92186
1.87868
1.85111
1.83441
1.82064
1.81165
1.80221
1.78772
1.76818
1.73474
1.68676
1.65676
1.63953
1.98073
1.27162
0.892984
0.616772
0.562255
0.590253
0.589887
0.568442
0.560346
0.583895
0.64244
0.721033
0.795216
0.863676
0.90825
0.941807
0.982781
1.01968
1.05458
1.0643
1.06483
1.07069
1.08303
1.08545
1.08768
1.09542
1.10478
1.10885
1.1076
1.32433
2.54447
3.01033
3.03852
3.02236
3.02958
3.03983
3.04889
3.04087
3.02221
2.99975
2.98291
2.97718
2.97738
2.96423
2.92953
2.89051
2.85719
2.83665
2.82894
2.82175
2.7963
2.7558
2.71205
2.6727
2.64225
2.62211
2.60869
2.59087
2.56547
2.5336
2.49744
2.46324
2.43563
2.41122
2.38992
2.36712
2.34068
2.31084
2.2747
2.23857
2.21197
2.19127
2.17428
2.1584
2.1356
2.11034
2.07996
2.04766
2.02163
2.00326
1.98552
1.96912
1.95228
1.92873
1.89924
1.86918
1.84497
1.82776
1.81291
1.79664
1.77969
1.76123
1.73793
1.70698
1.67605
1.64726
2.49157
1.80001
1.4276
1.12655
0.92158
0.838696
0.806068
0.741829
0.649288
0.639667
0.672214
0.730644
0.771822
0.810927
0.870742
0.915953
0.960902
1.01708
1.07041
1.10986
1.12399
1.13403
1.14857
1.15214
1.14898
1.15325
1.15464
1.14912
1.15059
1.25929
2.62909
3.32019
3.23474
3.14213
3.13618
3.15588
3.1764
3.18255
3.16719
3.13172
3.09598
3.07336
3.067
3.06641
3.04475
3.00233
2.95027
2.90731
2.87895
2.86916
2.86506
2.846
2.81246
2.7646
2.70069
2.64847
2.61994
2.60759
2.60636
2.59529
2.56876
2.53077
2.47608
2.42102
2.38785
2.36867
2.36205
2.35106
2.32834
2.29793
2.2529
2.20269
2.1708
2.15072
2.13968
2.13276
2.11647
2.09419
2.062
2.02183
1.98975
1.9661
1.9449
1.93067
1.91803
1.90205
1.87996
1.85083
1.82187
1.79899
1.77769
1.75569
1.73585
1.72166
1.70742
1.67179
2.83193
2.24869
1.85933
1.57812
1.33928
1.11523
1.03441
0.989452
0.910551
0.823925
0.803014
0.791225
0.769169
0.768984
0.794547
0.832474
0.879913
0.949338
1.01451
1.0649
1.09911
1.11421
1.14141
1.1757
1.19044
1.20681
1.20481
1.20016
1.23458
1.43373
2.4345
3.55108
3.56667
3.42024
3.32541
3.29974
3.30327
3.3168
3.3173
3.28164
3.23414
3.19219
3.16592
3.15102
3.13958
3.11404
3.07708
3.02798
2.98093
2.94861
2.92578
2.90809
2.88195
2.8486
2.80419
2.74732
2.69893
2.67108
2.65409
2.64149
2.61948
2.58887
2.54668
2.49611
2.45212
2.4244
2.40559
2.39044
2.37156
2.34802
2.31428
2.26398
2.21133
2.18163
2.16644
2.15653
2.14756
2.13172
2.10868
2.06947
2.01824
1.97988
1.96043
1.94791
1.93972
1.93044
1.91544
1.89221
1.85545
1.81527
1.78403
1.76259
1.74959
1.73943
1.73086
1.70134
3.03779
2.57985
2.19432
1.88637
1.68154
1.48551
1.26374
1.15796
1.11005
1.02225
0.930964
0.898234
0.865383
0.819146
0.811984
0.832459
0.847749
0.861384
0.886527
0.925386
0.980432
1.03282
1.08935
1.14513
1.18132
1.19483
1.2004
1.2422
1.48583
1.86359
2.19064
3.05416
3.59761
3.6401
3.53991
3.45274
3.39879
3.38783
3.40113
3.39174
3.36447
3.32081
3.26843
3.23612
3.21306
3.19511
3.17179
3.13799
3.09134
3.03501
2.98961
2.95852
2.93007
2.90331
2.87698
2.84435
2.80042
2.75077
2.71294
2.68337
2.6528
2.62153
2.59169
2.5641
2.53451
2.49932
2.46507
2.43725
2.41094
2.38332
2.35431
2.32199
2.28347
2.24169
2.21195
2.19475
2.17885
2.16017
2.13623
2.10379
2.06337
2.02573
2.0003
1.98397
1.97082
1.9577
1.94252
1.92097
1.88795
1.8475
1.81335
1.7927
1.7785
1.76599
1.75481
1.72462
3.19063
2.80872
2.47107
2.14703
1.91127
1.74841
1.55114
1.36324
1.28529
1.22048
1.11969
1.04786
1.01395
0.965544
0.913171
0.894353
0.888742
0.877901
0.858042
0.857759
0.870397
0.902797
0.954854
1.02663
1.10581
1.14282
1.19259
1.43807
1.87057
2.16302
2.21295
2.42349
3.05588
3.48466
3.61209
3.5562
3.46193
3.41938
3.41396
3.4215
3.41356
3.38519
3.33027
3.26842
3.23543
3.21462
3.20505
3.18325
3.14857
3.09654
3.03166
2.98602
2.95912
2.94022
2.92537
2.90125
2.86655
2.81371
2.75208
2.70642
2.67705
2.65471
2.63641
2.6181
2.59509
2.56193
2.51371
2.46684
2.4348
2.41094
2.39071
2.37023
2.34385
2.30644
2.26194
2.22678
2.20228
2.17927
2.15431
2.12863
2.10492
2.08169
2.05484
2.02619
2.00288
1.98334
1.96227
1.9373
1.90964
1.88247
1.8572
1.83326
1.81234
1.79459
1.77882
1.7427
3.30838
2.9751
2.66912
2.37764
2.13169
1.93927
1.77388
1.6067
1.46627
1.37592
1.29957
1.21359
1.13923
1.09487
1.04728
0.984232
0.930783
0.908731
0.896247
0.875694
0.874777
0.883332
0.892838
0.917974
0.965872
1.02955
1.25011
1.75405
2.0244
2.16857
2.20229
2.23464
2.43512
2.92202
3.40674
3.55003
3.48225
3.43294
3.41001
3.41731
3.41836
3.3986
3.3592
3.29061
3.23652
3.20965
3.19893
3.18684
3.15951
3.1252
3.072
3.01314
2.97936
2.95793
2.9378
2.91156
2.882
2.84227
2.78652
2.72958
2.69618
2.67471
2.65923
2.64338
2.62211
2.59393
2.5487
2.49173
2.45668
2.43752
2.41827
2.39742
2.37351
2.34434
2.30295
2.25259
2.21357
2.18798
2.16823
2.15218
2.13797
2.12265
2.10037
2.0644
2.02376
1.99311
1.96847
1.94648
1.92837
1.91289
1.89582
1.87349
1.84651
1.81953
1.7954
1.75402
3.40508
3.11061
2.81888
2.55856
2.33763
2.12943
1.9412
1.79864
1.65947
1.5285
1.44353
1.3748
1.27671
1.20512
1.17234
1.12898
1.04751
0.994418
0.986438
0.962787
0.935807
0.919256
0.905604
0.905888
0.922503
1.08678
1.51426
1.83079
1.93199
2.00752
2.06723
2.11552
2.18014
2.35434
2.76699
3.25916
3.45634
3.44687
3.41798
3.40602
3.404
3.38227
3.35711
3.31671
3.25476
3.20623
3.17811
3.16267
3.15374
3.12936
3.09864
3.05083
2.98898
2.94441
2.91569
2.8952
2.87755
2.8521
2.8201
2.77383
2.7183
2.68312
2.66148
2.64545
2.62652
2.60443
2.57624
2.53604
2.48381
2.43755
2.41044
2.39141
2.37473
2.35311
2.32252
2.28101
2.23442
2.20365
2.18809
2.178
2.16711
2.14932
2.1238
2.08503
2.03835
1.99771
1.97175
1.95597
1.94378
1.93227
1.91889
1.90153
1.87401
1.83386
1.79903
1.7602
3.4809
3.21426
2.94466
2.71299
2.49687
2.28802
2.10769
1.95939
1.81954
1.68329
1.58256
1.50851
1.42438
1.32327
1.26319
1.23203
1.17959
1.10492
1.06234
1.04284
1.00962
0.971452
0.940706
0.951718
1.08372
1.42982
1.77558
1.80978
1.81793
1.83123
1.86869
1.92891
1.97401
2.01491
2.13819
2.50358
3.03215
3.3417
3.42091
3.41234
3.37308
3.35163
3.33868
3.3197
3.28907
3.23094
3.17239
3.14199
3.12126
3.11638
3.09984
3.06819
3.01322
2.9439
2.90437
2.87999
2.86366
2.85368
2.83276
2.80367
2.7551
2.69594
2.65744
2.63339
2.61617
2.60301
2.58367
2.55746
2.51043
2.44657
2.40665
2.38151
2.35955
2.33944
2.32127
2.30166
2.27503
2.23864
2.20282
2.17652
2.15479
2.13344
2.10984
2.08395
2.05077
2.01706
1.99189
1.9761
1.96429
1.95346
1.94127
1.91625
1.8734
1.82749
1.80014
1.77382
3.54477
3.29772
3.05478
2.84131
2.63269
2.42324
2.25944
2.10513
1.96171
1.82428
1.72475
1.62715
1.54099
1.45631
1.37767
1.32127
1.27951
1.22873
1.16503
1.12371
1.08735
1.05457
1.0669
1.18974
1.49612
1.80245
1.89686
1.87478
1.85312
1.84428
1.82579
1.81871
1.82118
1.82504
1.84397
1.92083
2.20868
2.72067
3.20511
3.34641
3.3287
3.31054
3.30048
3.30914
3.29786
3.26383
3.19514
3.13232
3.10366
3.08702
3.08448
3.06453
3.03061
2.97332
2.90932
2.87513
2.85519
2.84697
2.83419
2.81007
2.7748
2.72104
2.66287
2.62818
2.60713
2.59258
2.57951
2.55827
2.52241
2.46857
2.41262
2.37486
2.35219
2.33661
2.3275
2.31544
2.29564
2.26539
2.22082
2.17673
2.14449
2.11935
2.09488
2.07119
2.05377
2.03848
2.02266
2.00416
1.98298
1.96012
1.93095
1.89554
1.85578
1.82107
1.80869
1.79063
3.5982
3.37096
3.14983
2.94704
2.74151
2.54733
2.39004
2.24059
2.08532
1.95244
1.85214
1.74954
1.65139
1.5763
1.50379
1.41883
1.35896
1.32323
1.27926
1.21858
1.16192
1.17194
1.30775
1.63575
1.91504
2.0062
1.97826
1.94577
1.9296
1.91206
1.8858
1.84284
1.81742
1.81174
1.81104
1.81822
1.84276
1.96912
2.34425
2.86887
3.19345
3.23667
3.26053
3.28788
3.29419
3.27445
3.22733
3.15136
3.09642
3.07187
3.05904
3.05506
3.03318
2.99929
2.94558
2.88868
2.85586
2.83279
2.811
2.792
2.77016
2.73987
2.6944
2.6431
2.60453
2.57794
2.55519
2.53171
2.50852
2.48065
2.44258
2.39916
2.36096
2.33565
2.31745
2.3025
2.28932
2.26936
2.23243
2.18241
2.13784
2.10711
2.08706
2.07357
2.06615
2.05941
2.04763
2.02769
1.99568
1.95588
1.91762
1.88133
1.84522
1.82575
1.81878
1.80476
3.65197
3.43888
3.2352
3.04146
2.84278
2.66193
2.50457
2.35621
2.20195
2.08022
1.97118
1.86732
1.75447
1.67829
1.61393
1.53878
1.45413
1.3981
1.35724
1.30561
1.3178
1.47674
1.85695
2.11744
2.14567
2.10393
2.06626
2.05072
2.03775
2.01479
1.98384
1.93761
1.88221
1.85118
1.83476
1.82298
1.82308
1.82528
1.85336
2.03208
2.45278
2.9143
3.14462
3.23584
3.29071
3.28087
3.24542
3.1925
3.11367
3.07013
3.04968
3.03904
3.0297
3.00688
2.97583
2.92568
2.86509
2.82458
2.79996
2.77841
2.75867
2.73901
2.71398
2.67254
2.61675
2.57152
2.54108
2.51677
2.49549
2.47696
2.45743
2.42844
2.38435
2.3419
2.3124
2.2893
2.26752
2.24597
2.22312
2.18929
2.14776
2.11597
2.09825
2.08546
2.07165
2.05542
2.03531
2.01132
1.9795
1.94248
1.90813
1.87604
1.85887
1.84502
1.8316
1.81057
3.70311
3.49825
3.30964
3.12425
2.93172
2.76501
2.61397
2.46083
2.31103
2.19497
2.08128
1.97529
1.86701
1.78245
1.70341
1.6307
1.55678
1.48924
1.43011
1.45064
1.63716
2.03923
2.34178
2.34207
2.28192
2.20443
2.16954
2.15553
2.13733
2.11103
2.08115
2.041
1.97625
1.92824
1.9019
1.87836
1.8577
1.8415
1.83444
1.82523
1.86775
2.10595
2.55855
2.96882
3.16808
3.24934
3.25636
3.21789
3.15922
3.08918
3.05296
3.03506
3.02372
3.00955
2.98635
2.953
2.89605
2.83266
2.79635
2.77375
2.75321
2.73549
2.71541
2.6883
2.64114
2.57987
2.53671
2.51213
2.49234
2.47519
2.45802
2.43693
2.40338
2.35728
2.31324
2.28024
2.25385
2.22936
2.20506
2.18385
2.16409
2.14173
2.1167
2.09438
2.07496
2.05454
2.02929
1.99644
1.95996
1.92685
1.90277
1.89167
1.88416
1.87048
1.85301
1.81754
3.74886
3.55813
3.37863
3.19977
3.02153
2.86376
2.71229
2.5533
2.419
2.30358
2.18829
2.06668
1.96865
1.88711
1.79933
1.71525
1.64068
1.57769
1.6113
1.83588
2.20679
2.50736
2.52636
2.47729
2.41004
2.33076
2.28057
2.25569
2.23202
2.20607
2.17739
2.1433
2.09577
2.03168
1.97896
1.94523
1.91801
1.89214
1.86422
1.84312
1.82692
1.81824
1.88958
2.1902
2.63422
3.01791
3.17437
3.21001
3.20025
3.13426
3.07287
3.03973
3.02082
3.00957
2.9893
2.9641
2.92443
2.86026
2.80529
2.77671
2.75541
2.73394
2.71174
2.68816
2.65584
2.60396
2.55173
2.51969
2.49621
2.47408
2.45132
2.42823
2.40405
2.36826
2.32001
2.27881
2.24894
2.22403
2.20329
2.18709
2.17194
2.15409
2.12867
2.09882
2.07268
2.04784
2.01935
1.98501
1.94553
1.92014
1.91079
1.9055
1.89812
1.88622
1.86684
1.81468
3.80499
3.62485
3.45034
3.27464
3.10762
2.95468
2.80303
2.64673
2.51865
2.39911
2.2828
2.1603
2.06895
1.97779
1.88375
1.79853
1.73951
1.80432
2.11571
2.46849
2.66439
2.67838
2.61552
2.57237
2.53414
2.47758
2.40282
2.35496
2.32512
2.29646
2.26544
2.23054
2.18971
2.13658
2.07712
2.03186
1.99844
1.96919
1.94015
1.90939
1.87274
1.83596
1.80756
1.81467
1.92652
2.26642
2.70351
3.03362
3.13343
3.15275
3.11853
3.05134
3.02253
3.00838
2.98761
2.96598
2.93716
2.88369
2.82406
2.78914
2.76437
2.73919
2.71295
2.6861
2.65635
2.6181
2.57358
2.53663
2.50708
2.47959
2.45282
2.42651
2.39841
2.36431
2.32178
2.28092
2.25483
2.23717
2.22156
2.20491
2.18418
2.15703
2.1241
2.09198
2.06372
2.03804
2.0114
1.98133
1.95343
1.93422
1.92366
1.91793
1.9107
1.89586
1.8713
1.81176
3.86218
3.68988
3.51668
3.34539
3.18953
3.03913
2.88505
2.7362
2.61362
2.49348
2.36838
2.25406
2.16028
2.05823
1.97252
1.91387
2.01725
2.39068
2.83352
2.91
2.85092
2.77209
2.72155
2.70061
2.6679
2.61692
2.54471
2.46814
2.41957
2.38305
2.34889
2.31268
2.273
2.22666
2.17142
2.11857
2.07619
2.04004
2.00822
1.97734
1.94283
1.90051
1.85097
1.80165
1.79668
1.81914
1.98046
2.35334
2.74692
3.01483
3.08621
3.06552
3.03557
3.01267
2.99333
2.97155
2.94404
2.89597
2.83691
2.79942
2.77508
2.75163
2.72476
2.69283
2.65593
2.61624
2.57798
2.54551
2.51868
2.49357
2.46701
2.4373
2.40326
2.36219
2.31294
2.27642
2.26088
2.24858
2.23578
2.22011
2.19887
2.1677
2.12625
2.0823
2.05035
2.02553
2.00509
1.99125
1.98025
1.96538
1.9424
1.91193
1.88551
1.86731
1.84664
1.806
3.93477
3.7642
3.59142
3.42526
3.2714
3.12008
2.96644
2.83046
2.7055
2.58412
2.45055
2.34871
2.24121
2.15001
2.12718
2.2876
2.66303
3.05423
3.15831
3.09255
2.98243
2.89497
2.84983
2.82269
2.78479
2.73141
2.67027
2.59807
2.5291
2.47645
2.4334
2.3929
2.35183
2.30804
2.25835
2.20347
2.153
2.11322
2.07851
2.04448
2.00978
1.97208
1.92514
1.87423
1.82748
1.79755
1.8
1.835
2.0316
2.395
2.76272
2.97667
2.9882
3.00637
3.01602
2.988
2.95586
2.90952
2.85287
2.80833
2.78047
2.75933
2.73674
2.70932
2.67258
2.6253
2.57629
2.54071
2.51844
2.49962
2.47906
2.45493
2.42483
2.38202
2.32204
2.27574
2.25897
2.24763
2.23691
2.22327
2.20586
2.17942
2.13373
2.07608
2.03832
2.02302
2.0157
2.01205
2.00084
1.98423
1.9571
1.91587
1.87353
1.84149
1.82195
1.79689
3.99633
3.82586
3.65628
3.50074
3.34877
3.19386
3.04591
2.91998
2.79498
2.66625
2.53334
2.43195
2.33056
2.37475
2.64263
3.04755
3.26946
3.37931
3.33399
3.24747
3.15738
3.05725
2.9695
2.92063
2.88238
2.83652
2.78445
2.7224
2.64768
2.57688
2.52278
2.47847
2.43607
2.39211
2.34423
2.29085
2.23505
2.18566
2.14515
2.10947
2.07362
2.03618
1.994
1.94477
1.88934
1.84279
1.80749
1.79639
1.80009
1.84974
2.05044
2.41599
2.70999
2.9064
2.97073
2.98335
2.97288
2.92871
2.88476
2.83709
2.78705
2.7586
2.73905
2.71659
2.68678
2.64727
2.5989
2.55023
2.51638
2.49554
2.47769
2.45953
2.43787
2.4065
2.35657
2.29637
2.25803
2.24063
2.22664
2.21415
2.20042
2.18179
2.14776
2.0977
2.05499
2.03324
2.01953
2.00549
1.99285
1.98167
1.96325
1.92492
1.87306
1.83151
1.81421
1.80371
4.05938
3.89546
3.73337
3.58081
3.43016
3.27474
3.13862
3.0065
2.88044
2.73524
2.62893
2.54404
2.64646
3.03213
3.51335
3.58928
3.53186
3.48528
3.43314
3.38111
3.31145
3.21691
3.10265
3.02576
2.98248
2.94167
2.89074
2.83198
2.76367
2.68775
2.61833
2.56436
2.51785
2.47176
2.42332
2.37156
2.31569
2.25994
2.21
2.16822
2.13208
2.09766
2.0618
2.02138
1.97253
1.91663
1.86367
1.82259
1.79012
1.79051
1.79286
1.85202
2.05338
2.3928
2.6835
2.85793
2.92144
2.93864
2.92357
2.87952
2.81463
2.75897
2.72829
2.7061
2.68609
2.66358
2.63168
2.58333
2.53105
2.49762
2.47559
2.45485
2.43377
2.41106
2.38128
2.33266
2.2718
2.23898
2.22333
2.20882
2.1921
2.17311
2.15324
2.12894
2.09433
2.0537
2.02333
2.00352
1.9867
1.96784
1.94584
1.91984
1.88504
1.85218
1.8274
1.80423
4.13537
3.97119
3.81631
3.66545
3.51192
3.36212
3.22297
3.09241
2.95118
2.83032
2.79355
2.99569
3.42321
3.84469
4.01529
3.91005
3.72189
3.5759
3.51755
3.49566
3.44683
3.36769
3.26343
3.15894
3.09482
3.04354
2.98953
2.93091
2.86812
2.79945
2.72542
2.656
2.59802
2.54682
2.49742
2.4479
2.39571
2.34075
2.28603
2.23596
2.19229
2.15265
2.11566
2.07765
2.03576
1.98772
1.93815
1.88975
1.84498
1.80753
1.77639
1.76502
1.77078
1.83452
2.05457
2.36938
2.65021
2.82095
2.88574
2.88288
2.85035
2.77583
2.72138
2.69729
2.68456
2.67069
2.6488
2.61362
2.56135
2.50921
2.47608
2.45084
2.42806
2.40807
2.38908
2.35788
2.30672
2.259
2.2301
2.21001
2.19195
2.17551
2.1614
2.14735
2.12129
2.0736
2.02928
2.00199
1.97983
1.95731
1.9338
1.91024
1.89356
1.87747
1.84982
1.81101
4.20847
4.04337
3.89361
3.74264
3.58535
3.44703
3.29845
3.17571
3.04712
3.11163
3.45204
3.92474
4.12923
4.19477
4.14967
4.03043
3.88297
3.73718
3.66825
3.63381
3.58518
3.51243
3.41931
3.30685
3.21241
3.14606
3.08701
3.02698
2.9661
2.90238
2.83083
2.75396
2.68366
2.62395
2.57073
2.52033
2.46889
2.41406
2.3568
2.30234
2.25332
2.20741
2.16354
2.12067
2.07812
2.03466
1.99084
1.94653
1.90234
1.85931
1.81756
1.77737
1.75107
1.73681
1.74643
1.81743
2.04486
2.36051
2.65028
2.79896
2.81313
2.79109
2.74869
2.70521
2.68478
2.66513
2.64287
2.62096
2.58003
2.52113
2.47925
2.45338
2.43206
2.4084
2.38113
2.35508
2.32542
2.28527
2.24533
2.21945
2.20269
2.19047
2.17862
2.15445
2.11383
2.07196
2.03578
2.0031
1.97441
1.9485
1.92697
1.91521
1.90632
1.89114
1.87388
1.83195
4.24807
4.12867
3.97433
3.80782
3.66633
3.51742
3.39515
3.3255
3.51106
3.98587
4.47222
4.55798
4.48821
4.36443
4.22675
4.14054
4.04753
3.93276
3.84696
3.78523
3.71865
3.64077
3.55008
3.44062
3.33986
3.26352
3.19748
3.13268
3.06666
2.99845
2.92523
2.84751
2.77417
2.71026
2.65294
2.59834
2.54269
2.4833
2.42048
2.36051
2.30855
2.2619
2.21658
2.17127
2.12553
2.0796
2.03275
1.98769
1.94103
1.89499
1.85313
1.81599
1.77839
1.74257
1.72311
1.69829
1.70785
1.80248
2.04729
2.35638
2.58286
2.72689
2.74082
2.72574
2.70603
2.67698
2.64605
2.608
2.55893
2.52449
2.49758
2.47057
2.4427
2.41314
2.38432
2.35943
2.33305
2.29573
2.25666
2.23958
2.22686
2.20296
2.16874
2.13415
2.10397
2.07449
2.03966
2.00196
1.9721
1.95263
1.93978
1.92689
1.91427
1.90558
1.88609
1.91799
4.09625
4.19436
4.06829
3.88536
3.74656
3.60483
3.6878
4.0503
4.55694
4.89546
4.93785
4.78924
4.64392
4.52085
4.40309
4.32267
4.23578
4.11817
4.0125
3.93279
3.85393
3.76707
3.67303
3.56942
3.46904
3.38818
3.31777
3.24829
3.1761
3.09893
3.01582
2.93068
2.85295
2.78616
2.72632
2.66901
2.61064
2.54807
2.47962
2.40979
2.34885
2.29947
2.25536
2.21177
2.16795
2.12431
2.07586
2.02407
1.97574
1.93096
1.8837
1.84326
1.80691
1.76873
1.73124
1.69341
1.67547
1.6522
1.67011
1.78701
2.01861
2.33829
2.53432
2.65221
2.67138
2.66702
2.65119
2.61794
2.56483
2.51643
2.48123
2.4538
2.42938
2.40845
2.38791
2.36484
2.33959
2.31233
2.28002
2.24763
2.21573
2.18617
2.15536
2.12628
2.09489
2.05501
2.02163
2.00098
1.98903
1.98033
1.9697
1.95948
1.9385
1.94917
1.9948
2.21317
3.24583
4.14106
4.1034
3.96463
3.87179
4.12062
4.76075
5.20976
5.27103
5.26051
5.13727
4.95574
4.80132
4.71062
4.62006
4.51705
4.41006
4.28254
4.16363
4.0781
3.99508
3.90335
3.80296
3.69729
3.59654
3.50779
3.42794
3.35084
3.27201
3.18919
3.10149
3.01089
2.92475
2.84977
2.78506
2.72573
2.66735
2.60627
2.53873
2.46427
2.38889
2.32613
2.28097
2.24313
2.20105
2.15794
2.11665
2.06948
2.00923
1.95396
1.91673
1.88167
1.84673
1.81169
1.77195
1.73129
1.68415
1.6369
1.60784
1.59214
1.62364
1.76535
2.0296
2.32213
2.46343
2.5544
2.57849
2.56734
2.53982
2.49661
2.46062
2.44192
2.42825
2.41072
2.39297
2.37266
2.34281
2.30053
2.25725
2.21951
2.19165
2.17153
2.15324
2.12827
2.09165
2.05251
2.02492
2.00874
1.99647
1.99244
1.98445
2.00134
2.06229
2.20946
2.3858
2.62955
1.93936
3.57709
4.01148
4.15647
4.68878
5.42048
5.86418
5.7695
5.54823
5.41681
5.28866
5.13681
4.98185
4.87959
4.79848
4.68998
4.5761
4.45382
4.3282
4.23118
4.1425
4.04741
3.94476
3.83159
3.71491
3.61077
3.51951
3.43325
3.34777
3.26109
3.17096
3.07718
2.98532
2.90359
2.83382
2.77148
2.71255
2.65338
2.58838
2.51524
2.43757
2.36353
2.29788
2.24874
2.21529
2.18126
2.13151
2.07778
2.02841
1.977
1.91932
1.86576
1.82247
1.78633
1.75212
1.71573
1.67593
1.63535
1.5973
1.56915
1.54688
1.5372
1.58033
1.74055
2.00321
2.27752
2.44326
2.46741
2.46771
2.4546
2.42111
2.39217
2.36796
2.34498
2.32964
2.31559
2.29769
2.27223
2.23867
2.20474
2.17668
2.15017
2.12168
2.08818
2.06153
2.0479
2.03324
2.0264
2.02055
2.04275
2.11631
2.26792
2.474
2.66986
2.76793
2.83386
1.44177
2.24785
3.39159
5.27388
6.19411
6.21458
6.16067
5.94523
5.71352
5.57039
5.46216
5.31705
5.14815
5.01334
4.92866
4.82747
4.7154
4.6013
4.47557
4.36059
4.26091
4.15769
4.04854
3.93153
3.80979
3.69519
3.59337
3.49995
3.40917
3.31758
3.22288
3.12547
3.03047
2.94515
2.87129
2.80363
2.73743
2.66989
2.59936
2.52621
2.45221
2.38377
2.32342
2.2672
2.21408
2.18248
2.15564
2.11157
2.054
1.99073
1.92409
1.8657
1.81921
1.78053
1.74771
1.71521
1.68006
1.64339
1.60273
1.56173
1.52775
1.5028
1.48076
1.48958
1.56473
1.74342
2.00324
2.21192
2.37442
2.40971
2.40196
2.37484
2.34505
2.32031
2.29695
2.26792
2.24031
2.21912
2.20029
2.1793
2.15426
2.12599
2.09377
2.06599
2.05218
2.04418
2.04383
2.07233
2.16833
2.35826
2.56903
2.76368
2.86353
2.87863
2.90202
2.91484
1.40075
1.49069
2.93467
6.39175
6.67099
6.27725
6.07795
5.91759
5.75021
5.62964
5.52621
5.41625
5.27256
5.13357
5.04554
4.95441
4.84828
4.73616
4.61101
4.48255
4.3706
4.2625
4.14574
4.02105
3.8938
3.77379
3.66649
3.56848
3.47374
3.37835
3.28007
3.17966
3.082
2.99317
2.91464
2.84238
2.77282
2.70373
2.63335
2.5609
2.48697
2.41626
2.35204
2.29331
2.23787
2.18228
2.12343
2.06319
2.0033
1.96006
1.93009
1.89042
1.84502
1.79291
1.74124
1.69658
1.65718
1.62236
1.58846
1.55596
1.52337
1.4948
1.47133
1.4529
1.43915
1.45622
1.54698
1.73128
1.99035
2.17488
2.29399
2.31921
2.31734
2.31267
2.29285
2.25326
2.2087
2.17567
2.1522
2.13114
2.10912
2.08561
2.07128
2.06317
2.05821
2.08431
2.18687
2.39456
2.63473
2.85515
2.93461
2.96759
2.95366
2.93329
2.94042
2.94397
1.40001
1.40273
3.11034
5.99775
6.12925
5.87577
5.75524
5.68732
5.6153
5.55004
5.48208
5.40902
5.28169
5.14195
5.04085
4.9412
4.82328
4.70287
4.58234
4.45656
4.33741
4.22009
4.09412
3.96151
3.83016
3.70731
3.59664
3.49599
3.39989
3.30409
3.20638
3.1079
3.01249
2.92411
2.8444
2.77023
2.69975
2.6311
2.56188
2.49149
2.42123
2.35509
2.29643
2.24725
2.20181
2.14961
2.08877
2.03278
1.98827
1.94571
1.89886
1.85122
1.80628
1.76574
1.7273
1.68695
1.64852
1.61667
1.5889
1.56572
1.53998
1.51277
1.48361
1.44611
1.4163
1.3989
1.39184
1.41667
1.53641
1.76357
2.00761
2.10934
2.20062
2.2447
2.23575
2.21059
2.17788
2.14203
2.11299
2.093
2.07953
2.07526
2.07619
2.10037
2.18907
2.39914
2.65864
2.84039
2.98996
3.04774
3.04641
3.03284
2.99983
2.95632
2.93324
2.90552
1.40001
1.40006
3.37977
5.52643
5.67499
5.57396
5.54033
5.50686
5.46085
5.40903
5.34483
5.25416
5.13172
5.01587
4.91451
4.83241
4.73782
4.61841
4.5054
4.39507
4.27344
4.14877
4.0189
3.88599
3.75742
3.63724
3.52676
3.42536
3.33018
3.23795
3.14635
3.05605
2.96899
2.88592
2.80666
2.7293
2.65508
2.58436
2.51507
2.44698
2.38262
2.32798
2.27993
2.23201
2.17849
2.11733
2.05573
2.00199
1.9576
1.91715