/*--------------------------------*- C++ -*----------------------------------*\
  =========                 |
  \\      /  F ield         | OpenFOAM: The Open Source CFD Toolbox
   \\    /   O peration     | Website:  https://openfoam.org
    \\  /    A nd           | Version:  7
     \\/     M anipulation  |
\*---------------------------------------------------------------------------*/
FoamFile
{
    version     2.0;
    format      ascii;
    class       volVectorField;
    location    "3.5";
    object      U;
}
// * * * * * * * * * * * * * * * * * * * * * * * * * * * * * * * * * * * * * //

dimensions      [0 1 -1 0 0 0 0];

internalField   nonuniform List<vector> 
4032
(
(3 -1.96066e-17 0)
(3 -1.57721e-17 0)
(3 -3.61838e-17 0)
(3 -8.75566e-17 0)
(3 -4.91552e-16 0)
(3 -1.03979e-15 0)
(3 -9.62763e-16 0)
(3 -4.83262e-16 0)
(3 1.26946e-16 0)
(3 7.63987e-16 0)
(3 1.42523e-16 0)
(2.95102 0.00251853 0)
(1.02079 0.0178637 0)
(0.706744 0.0195277 0)
(0.652799 0.0232134 0)
(0.592946 0.0244865 0)
(0.533581 0.0257449 0)
(0.472426 0.0272257 0)
(0.40916 0.0290394 0)
(0.342935 0.0311631 0)
(0.273725 0.0330795 0)
(0.201122 0.0355129 0)
(0.124576 0.0372615 0)
(0.0460596 0.0418767 0)
(3 -1.23066e-16 0)
(3 -3.66725e-16 0)
(3 -3.67154e-16 0)
(3 -1.91409e-16 0)
(3 -2.80285e-16 0)
(3 -7.98227e-16 0)
(3 -7.50938e-16 0)
(3 -2.44849e-16 0)
(3 1.06469e-15 0)
(3 1.27742e-15 0)
(3 5.54695e-16 0)
(2.95873 0.0238273 0)
(1.03006 0.0798205 0)
(0.700057 0.0683933 0)
(0.646909 0.0718833 0)
(0.589141 0.0766335 0)
(0.530091 0.0813188 0)
(0.468264 0.0864046 0)
(0.403778 0.0920505 0)
(0.336353 0.0984002 0)
(0.266303 0.103858 0)
(0.193752 0.110854 0)
(0.118043 0.115529 0)
(0.0427486 0.126688 0)
(3 -1.15593e-17 0)
(3 2.8295e-16 0)
(3 2.77092e-16 0)
(3 5.72105e-16 0)
(3 1.04799e-15 0)
(3 1.16227e-15 0)
(3 1.0178e-15 0)
(3 6.52955e-16 0)
(3 6.3643e-16 0)
(3 7.88569e-16 0)
(3 6.4121e-16 0)
(2.99988 0.0069897 0)
(1.08532 0.135018 0)
(0.727222 0.110264 0)
(0.672698 0.117596 0)
(0.613209 0.126556 0)
(0.552299 0.135408 0)
(0.488962 0.1448 0)
(0.423002 0.154741 0)
(0.354049 0.165577 0)
(0.281685 0.174617 0)
(0.206031 0.186243 0)
(0.125314 0.193507 0)
(0.0458366 0.209379 0)
(3 1.70384e-16 0)
(3 3.36566e-16 0)
(3 6.79716e-16 0)
(3 8.83011e-16 0)
(3 1.59027e-15 0)
(3 1.82095e-15 0)
(3 1.44935e-15 0)
(3 9.18555e-16 0)
(3 3.46144e-16 0)
(3 9.23136e-17 0)
(3 -2.23895e-16 0)
(3.00076 0.000232864 0)
(1.17178 0.176508 0)
(0.738513 0.153312 0)
(0.682382 0.167021 0)
(0.624413 0.179713 0)
(0.564763 0.191677 0)
(0.503286 0.204863 0)
(0.438653 0.219194 0)
(0.369858 0.235649 0)
(0.295624 0.249963 0)
(0.217369 0.268087 0)
(0.132282 0.279711 0)
(0.0475779 0.30009 0)
(3 -9.88949e-17 0)
(3 -4.73497e-16 0)
(3 -4.66817e-16 0)
(3 -3.02748e-16 0)
(3 4.35665e-18 0)
(3 1.16241e-16 0)
(3 3.7219e-16 0)
(3 4.3864e-16 0)
(3 5.1247e-16 0)
(3 1.39852e-16 0)
(3 -9.47556e-16 0)
(3.00001 1.12046e-07 0)
(1.30748 0.226542 0)
(0.749485 0.199544 0)
(0.685211 0.213663 0)
(0.631797 0.229561 0)
(0.576422 0.244509 0)
(0.519742 0.262012 0)
(0.459393 0.28181 0)
(0.394808 0.305389 0)
(0.322946 0.326048 0)
(0.245228 0.352053 0)
(0.153514 0.372141 0)
(0.0582883 0.400975 0)
(3 1.16378e-17 0)
(3 -7.44049e-17 0)
(3 -3.84128e-16 0)
(3 -5.66396e-16 0)
(3 -6.85054e-16 0)
(3 -2.71303e-16 0)
(3 -4.61009e-17 0)
(3 2.37951e-16 0)
(3 2.30926e-17 0)
(3 -1.06656e-16 0)
(3 1.2854e-16 0)
(3 -1.09037e-10 0)
(1.51663 0.276681 0)
(0.771702 0.25487 0)
(0.687653 0.260532 0)
(0.635967 0.27623 0)
(0.584876 0.293044 0)
(0.535168 0.314637 0)
(0.481987 0.340108 0)
(0.423434 0.372784 0)
(0.351422 0.405516 0)
(0.268668 0.447077 0)
(0.168338 0.485416 0)
(0.0575071 0.524057 0)
(3 -9.70182e-18 0)
(3 -3.84831e-16 0)
(3 -5.34227e-16 0)
(3 -8.1724e-16 0)
(3 -8.2234e-16 0)
(3 -4.97575e-16 0)
(3 -3.27048e-16 0)
(3 -3.59029e-16 0)
(3 -1.42258e-16 0)
(3 1.12869e-16 0)
(3 1.20991e-15 0)
(3 -6.24197e-10 0)
(1.8191 0.328455 0)
(0.808298 0.325786 0)
(0.693231 0.314963 0)
(0.638948 0.324821 0)
(0.588981 0.340098 0)
(0.544286 0.363788 0)
(0.498077 0.39474 0)
(0.451036 0.438394 0)
(0.391902 0.486914 0)
(0.324252 0.543045 0)
(0.233185 0.600161 0)
(0.101493 0.66739 0)
(3 -1.1662e-16 0)
(3 -3.26867e-16 0)
(3 -1.94866e-16 0)
(3 8.02809e-17 0)
(3 6.85852e-17 0)
(3 -1.62825e-16 0)
(3 2.56083e-16 0)
(3 1.26148e-16 0)
(3 4.66016e-16 0)
(3 4.93277e-16 0)
(3 3.04737e-16 0)
(3 -3.13261e-10 0)
(2.26195 0.350546 0)
(0.882755 0.412433 0)
(0.731689 0.375791 0)
(0.677376 0.380398 0)
(0.62403 0.390308 0)
(0.577758 0.411947 0)
(0.533592 0.444937 0)
(0.49482 0.493936 0)
(0.4496 0.554331 0)
(0.38939 0.639594 0)
(0.271384 0.76132 0)
(0.151133 0.928798 0)
(3 3.41415e-17 0)
(3 5.54048e-16 0)
(3 9.17076e-16 0)
(3 9.98868e-16 0)
(3 7.95516e-16 0)
(3 4.11285e-16 0)
(3 9.20454e-17 0)
(3 3.26234e-17 0)
(3 -2.84691e-16 0)
(3 -4.33866e-16 0)
(3 -6.26739e-16 0)
(3 -1.00802e-10 0)
(2.84655 0.215133 0)
(1.04807 0.474486 0)
(0.825855 0.409709 0)
(0.768089 0.421969 0)
(0.702079 0.438712 0)
(0.644159 0.459883 0)
(0.596031 0.491634 0)
(0.557246 0.542447 0)
(0.52232 0.619019 0)
(0.490148 0.745809 0)
(0.458773 0.922396 0)
(0.574736 1.20402 0)
(3 5.06724e-17 0)
(3 4.08065e-16 0)
(3 4.10227e-16 0)
(3 3.27253e-16 0)
(3 3.63625e-16 0)
(3 -8.61111e-16 0)
(3 -9.80964e-16 0)
(3 -9.56891e-16 0)
(3 -9.04994e-16 0)
(3 -6.25342e-16 0)
(3 -3.52279e-16 0)
(3 -1.25054e-11 0)
(3.05464 0.01729 0)
(1.27205 0.456868 0)
(0.880627 0.463259 0)
(0.839422 0.492091 0)
(0.780214 0.503605 0)
(0.72214 0.518969 0)
(0.673275 0.545581 0)
(0.632999 0.593185 0)
(0.614928 0.675478 0)
(0.615541 0.810978 0)
(0.679489 0.962883 0)
(0.968325 1.13794 0)
(3 -3.43036e-16 0)
(3 -5.34774e-16 0)
(3 -6.21511e-16 0)
(3 -8.89371e-16 0)
(3 -6.05311e-16 0)
(3 -2.65218e-16 0)
(3 -1.62677e-16 0)
(3 -6.53958e-17 0)
(3 2.4822e-16 0)
(3 5.11698e-17 0)
(3 -3.73565e-16 0)
(3 -3.70881e-13 0)
(3.00274 -8.46214e-07 0)
(1.53757 0.462592 0)
(0.876296 0.517254 0)
(0.83567 0.541697 0)
(0.805957 0.564943 0)
(0.774717 0.58185 0)
(0.744007 0.605296 0)
(0.716093 0.642435 0)
(0.716215 0.712535 0)
(0.74277 0.827355 0)
(0.865443 0.955392 0)
(1.17953 1.06082 0)
(3 -8.47279e-17 0)
(3 -3.98176e-16 0)
(3 -9.81184e-17 0)
(3 -1.97183e-16 0)
(3 -3.79114e-16 0)
(3 1.07149e-16 0)
(3 4.12961e-16 0)
(3 5.80943e-16 0)
(3 4.35806e-16 0)
(3 3.88264e-17 0)
(3 -9.03864e-16 0)
(3 -3.04706e-15 0)
(3.00001 -4.44856e-07 0)
(2.13993 0.48337 0)
(0.946006 0.582184 0)
(0.861805 0.558088 0)
(0.854755 0.585286 0)
(0.836679 0.614684 0)
(0.821055 0.646378 0)
(0.807202 0.680801 0)
(0.816574 0.741054 0)
(0.86355 0.829004 0)
(1.00606 0.932558 0)
(1.27817 0.998374 0)
(3 3.13088e-16 0)
(3 4.05826e-16 0)
(3 6.27426e-16 0)
(3 5.67376e-16 0)
(3 6.71049e-16 0)
(3 9.05816e-16 0)
(3 6.82391e-16 0)
(3 -6.7051e-17 0)
(3 -9.6043e-16 0)
(3 -1.12878e-15 0)
(3 -1.0219e-15 0)
(3 -4.31045e-16 0)
(3 -5.02423e-07 0)
(2.94482 0.210879 0)
(1.16361 0.614257 0)
(0.936788 0.564214 0)
(0.925939 0.608795 0)
(0.907924 0.641959 0)
(0.897989 0.678052 0)
(0.897159 0.713292 0)
(0.912031 0.762087 0)
(0.97076 0.826746 0)
(1.10514 0.898311 0)
(1.32143 0.940352 0)
(3 -1.7132e-16 0)
(3 -5.28321e-17 0)
(3 -2.03259e-16 0)
(3 -3.38295e-16 0)
(3 4.16873e-17 0)
(3 2.656e-16 0)
(3 2.29777e-16 0)
(3 -6.87451e-17 0)
(3 -3.67108e-16 0)
(3 -6.66485e-16 0)
(3 -4.56806e-16 0)
(3 -3.17341e-16 0)
(3 -1.03656e-07 0)
(3.0509 0.00850646 0)
(1.45371 0.59859 0)
(0.976149 0.644727 0)
(0.940742 0.653385 0)
(0.932404 0.679042 0)
(0.943398 0.711803 0)
(0.962886 0.747995 0)
(0.995454 0.78612 0)
(1.06196 0.832084 0)
(1.18164 0.879221 0)
(1.35058 0.903772 0)
(3 3.16689e-17 0)
(3 -1.20683e-16 0)
(3 -6.97789e-16 0)
(3 -5.94505e-16 0)
(3 -2.38332e-16 0)
(3 1.29925e-16 0)
(3 -4.66377e-16 0)
(3 -8.53849e-16 0)
(3 -1.00557e-15 0)
(3 -4.34802e-16 0)
(3 -8.06717e-16 0)
(3 -1.01302e-15 0)
(3 -9.0238e-09 0)
(3.00132 -2.5522e-06 0)
(2.09609 0.585955 0)
(1.04792 0.715919 0)
(0.98776 0.679384 0)
(0.979688 0.689669 0)
(0.994487 0.716016 0)
(1.02039 0.75325 0)
(1.06514 0.791222 0)
(1.13505 0.829016 0)
(1.23882 0.860135 0)
(1.37143 0.873974 0)
(3 3.20952e-16 0)
(3 3.76969e-16 0)
(3 -2.194e-16 0)
(3 -7.41525e-16 0)
(3 2.02565e-16 0)
(3 8.4316e-16 0)
(3 4.096e-17 0)
(3 -9.55471e-17 0)
(3 -8.87532e-16 0)
(3 -5.97105e-16 0)
(3 -5.52765e-16 0)
(3 -1.61998e-17 0)
(3 -9.37551e-11 0)
(3.00003 -1.01937e-05 0)
(3.02991 0.166298 0)
(1.31485 0.686643 0)
(1.06941 0.698997 0)
(1.06651 0.705442 0)
(1.069 0.734424 0)
(1.08374 0.766819 0)
(1.12507 0.801535 0)
(1.19216 0.83266 0)
(1.28256 0.853868 0)
(1.39176 0.86155 0)
(3 -1.75368e-16 0)
(3 -7.50355e-17 0)
(3 3.95506e-16 0)
(3 4.14478e-16 0)
(3 4.20479e-16 0)
(3 2.02974e-17 0)
(3 3.68615e-16 0)
(3 5.49673e-16 0)
(3 1.4959e-16 0)
(3 -6.734e-16 0)
(3 -6.54073e-16 0)
(3 4.10849e-16 0)
(3 -1.60598e-13 0)
(3 -2.67755e-06 0)
(3.03079 0.00237986 0)
(1.62835 0.65571 0)
(1.09227 0.753703 0)
(1.09164 0.755598 0)
(1.10412 0.773593 0)
(1.12978 0.790417 0)
(1.1706 0.809724 0)
(1.23354 0.828639 0)
(1.31297 0.842704 0)
(1.40824 0.846585 0)
(3 -1.28772e-16 0)
(3 -4.63987e-16 0)
(3 -3.44929e-16 0)
(3 3.72312e-16 0)
(3 2.37234e-17 0)
(3 -4.9629e-16 0)
(3 3.19748e-17 0)
(3 7.62861e-17 0)
(3 3.15255e-16 0)
(3 3.4659e-16 0)
(3 1.87151e-16 0)
(3 2.44344e-16 0)
(3 1.79684e-16 0)
(3 -2.20594e-07 0)
(3.00044 8.42842e-06 0)
(2.5141 0.465617 0)
(1.22263 0.785543 0)
(1.12188 0.779616 0)
(1.14341 0.784501 0)
(1.16898 0.798781 0)
(1.20787 0.814606 0)
(1.26634 0.829192 0)
(1.33848 0.839831 0)
(1.42259 0.84115 0)
(3 -9.66861e-17 0)
(3 -6.95459e-16 0)
(3 -9.83e-16 0)
(3 -7.56487e-16 0)
(3 -9.25856e-16 0)
(3 -9.06972e-16 0)
(3 -6.66423e-16 0)
(3 5.91773e-17 0)
(3 5.58611e-16 0)
(3 2.92234e-16 0)
(3 2.95359e-16 0)
(3 -1.00413e-16 0)
(3 -2.75505e-16 0)
(3 -1.41851e-09 0)
(3.00003 -1.23818e-05 0)
(3.06566 0.0503969 0)
(1.59988 0.767719 0)
(1.17825 0.791536 0)
(1.19842 0.79594 0)
(1.21352 0.807432 0)
(1.24736 0.816829 0)
(1.29758 0.826553 0)
(1.36097 0.833408 0)
(1.43531 0.833037 0)
(3 -1.37314e-16 0)
(3 -1.48918e-16 0)
(3 5.7858e-16 0)
(3 -4.54278e-17 0)
(3 -1.27039e-16 0)
(3 -2.63533e-16 0)
(3 -5.36978e-16 0)
(3 -2.27506e-16 0)
(3 3.58849e-16 0)
(3 2.15915e-16 0)
(3 -4.74586e-17 0)
(3 -3.08681e-16 0)
(3 -1.87048e-16 0)
(3 -2.79325e-12 0)
(3 -2.70184e-06 0)
(3.00549 0.000956879 0)
(2.4074 0.592074 0)
(1.28507 0.859121 0)
(1.22964 0.840187 0)
(1.25151 0.83431 0)
(1.27963 0.835515 0)
(1.32437 0.837567 0)
(1.37961 0.838321 0)
(1.44587 0.834572 0)
(3 2.54705e-16 0)
(3 8.18026e-16 0)
(3 1.3119e-15 0)
(3 1.07813e-15 0)
(3 8.30068e-16 0)
(3 3.12317e-16 0)
(3 2.82326e-18 0)
(3 -1.43881e-16 0)
(3 4.71581e-16 0)
(3 1.00034e-15 0)
(3 5.6801e-16 0)
(3 4.91883e-16 0)
(3 5.86992e-16 0)
(3 -1.38826e-15 0)
(3 -2.32153e-07 0)
(3.00002 4.18035e-06 0)
(3.05466 0.0859561 0)
(1.69057 0.825531 0)
(1.27953 0.844848 0)
(1.3031 0.840284 0)
(1.32283 0.838823 0)
(1.36006 0.83634 0)
(1.40655 0.83387 0)
(1.46475 0.829318 0)
(3 1.29069e-16 0)
(3 3.41521e-16 0)
(3 4.29807e-16 0)
(3 4.07724e-16 0)
(3 2.03539e-16 0)
(3 1.05697e-16 0)
(3 7.40556e-17 0)
(3 -1.63842e-16 0)
(3 -3.24248e-16 0)
(3 -4.23679e-17 0)
(3 -1.63267e-16 0)
(3 6.90662e-17 0)
(3 -1.77265e-16 0)
(3 -3.64923e-16 0)
(3 -2.53048e-09 0)
(3 -1.61342e-07 0)
(3.00699 0.00279432 0)
(2.56609 0.567494 0)
(1.39991 0.902905 0)
(1.33676 0.876221 0)
(1.36406 0.864621 0)
(1.39361 0.859078 0)
(1.43248 0.852833 0)
(1.48088 0.845597 0)
(3 6.84544e-17 0)
(3 -5.42285e-17 0)
(3 -1.52322e-16 0)
(3 -1.54642e-16 0)
(3 -1.61775e-16 0)
(3 -1.4491e-16 0)
(3 -2.2023e-16 0)
(3 -9.13076e-16 0)
(3 -7.54655e-16 0)
(3 -3.54289e-16 0)
(3 -1.32967e-17 0)
(3 -6.08636e-16 0)
(3 -5.25255e-16 0)
(3 -4.96016e-17 0)
(3 -5.01632e-12 0)
(3 -3.90684e-08 0)
(3.00002 2.47856e-05 0)
(3.05271 0.0604534 0)
(1.84192 0.811394 0)
(1.37949 0.891713 0)
(1.41306 0.882139 0)
(1.4388 0.87373 0)
(1.47177 0.862697 0)
(1.50989 0.852285 0)
(3 1.05238e-16 0)
(3 1.54355e-16 0)
(3 -2.26948e-16 0)
(3 -3.2587e-17 0)
(3 1.96167e-16 0)
(3 1.3062e-16 0)
(3 4.52733e-16 0)
(3 4.09659e-16 0)
(3 4.58496e-16 0)
(3 2.75115e-16 0)
(3 4.52225e-16 0)
(3 -5.67175e-16 0)
(3 -7.27234e-16 0)
(3 -1.30007e-16 0)
(3 -1.91146e-15 0)
(3 -3.53603e-09 0)
(3 9.51622e-09 0)
(3.00331 0.00231602 0)
(2.71693 0.431452 0)
(1.57127 0.926563 0)
(1.42765 0.907408 0)
(1.46588 0.900698 0)
(1.49637 0.890941 0)
(1.5306 0.877573 0)
(3 -2.34784e-16 0)
(3 -2.97236e-16 0)
(3 -9.52966e-17 0)
(3 -1.13994e-16 0)
(3 -6.97563e-17 0)
(3 3.44379e-17 0)
(3 1.01598e-15 0)
(3 1.29055e-15 0)
(3 9.53179e-16 0)
(3 1.04921e-15 0)
(3 4.96354e-16 0)
(3 2.95609e-16 0)
(3 1.84268e-16 0)
(3 1.19872e-17 0)
(3 1.82774e-16 0)
(3 -1.32227e-10 0)
(3 -1.30253e-10 0)
(3.00001 1.42564e-05 0)
(3.02606 0.0322345 0)
(2.12778 0.766327 0)
(1.49158 0.922046 0)
(1.49603 0.914266 0)
(1.52696 0.901016 0)
(1.55922 0.886837 0)
(3 3.1107e-18 0)
(3 -9.28996e-17 0)
(3 -5.57362e-17 0)
(3 -2.02193e-16 0)
(3 -3.12518e-16 0)
(3 -3.03155e-16 0)
(3 5.14151e-17 0)
(3 6.64232e-16 0)
(3 9.50582e-16 0)
(3 1.08493e-15 0)
(3 1.30932e-15 0)
(3 1.4998e-15 0)
(3 1.59058e-15 0)
(3 7.3194e-16 0)
(3 5.70883e-16 0)
(3 -1.07794e-12 0)
(3 -4.05444e-11 0)
(3 6.73187e-09 0)
(3.0007 0.00126005 0)
(2.91341 0.233823 0)
(1.80126 0.881067 0)
(1.52103 0.931789 0)
(1.55449 0.920339 0)
(1.58871 0.904305 0)
(3 2.05846e-16 0)
(3 3.19697e-17 0)
(3 -4.76657e-16 0)
(3 -8.00987e-16 0)
(3 -7.64142e-16 0)
(3 -3.56047e-16 0)
(3 -5.42173e-16 0)
(3 -2.21279e-16 0)
(3 -1.56412e-16 0)
(3 1.86845e-16 0)
(3 3.61149e-16 0)
(3 6.05112e-16 0)
(3 1.04196e-15 0)
(3 1.90348e-15 0)
(3 1.5332e-15 0)
(3 -1.24036e-15 0)
(3 -5.19303e-12 0)
(3 -4.27181e-12 0)
(3 4.42593e-06 0)
(3.00705 0.0140948 0)
(2.52903 0.561681 0)
(1.65838 0.953915 0)
(1.56202 0.938681 0)
(1.5997 0.926502 0)
(3 -4.15262e-18 0)
(3 -9.94891e-18 0)
(3 7.96945e-17 0)
(3 3.99135e-17 0)
(3 -2.24006e-16 0)
(3 -3.55002e-16 0)
(3 -4.93108e-16 0)
(3 -4.90813e-16 0)
(3 -5.03403e-16 0)
(3 -5.81949e-16 0)
(3 -1.11373e-15 0)
(3 -1.31665e-15 0)
(3 -7.12097e-16 0)
(3 1.45926e-16 0)
(3 7.72376e-16 0)
(3 5.65297e-16 0)
(3 -1.4563e-13 0)
(3 -1.45999e-12 0)
(3 2.00663e-09 0)
(3.00002 0.000297866 0)
(2.99886 0.073886 0)
(2.15416 0.778254 0)
(1.62488 0.947656 0)
(1.61878 0.943713 0)
(3 -1.30636e-16 0)
(3 3.05217e-16 0)
(3 7.80875e-16 0)
(3 6.14133e-16 0)
(3 2.46647e-16 0)
(3 -1.94676e-16 0)
(3 -2.36214e-16 0)
(3 -5.80195e-16 0)
(3 -3.17796e-16 0)
(3 -4.88947e-16 0)
(3 -5.44777e-16 0)
(3 -5.65979e-16 0)
(3 -5.33965e-16 0)
(3 -5.83297e-16 0)
(3 -6.30298e-16 0)
(3 -4.33198e-17 0)
(3 -8.27694e-16 0)
(3 -2.21367e-13 0)
(3 2.27491e-13 0)
(3 4.88636e-07 0)
(3.00062 0.00362181 0)
(2.8661 0.261699 0)
(1.93082 0.872102 0)
(1.65807 0.955261 0)
(3 -4.64669e-17 0)
(3 6.49447e-17 0)
(3 8.43089e-17 0)
(3 -1.64273e-16 0)
(3 -5.3309e-17 0)
(3 2.75772e-17 0)
(3 1.12866e-16 0)
(3 -1.48414e-17 0)
(3 -3.46758e-16 0)
(3 8.60627e-17 0)
(3 9.87603e-16 0)
(3 1.16492e-15 0)
(3 5.59746e-16 0)
(3 -4.09932e-16 0)
(3 -7.6608e-16 0)
(3 -6.08984e-16 0)
(3 1.05008e-16 0)
(3 -1.469e-14 0)
(3 -1.39403e-14 0)
(3 2.65073e-10 0)
(3 2.26334e-05 0)
(3.00093 0.0187091 0)
(2.60166 0.490511 0)
(1.8367 0.929147 0)
(3 3.0089e-17 0)
(3 3.75108e-18 0)
(3 -2.63336e-16 0)
(3 1.21519e-16 0)
(3 9.14637e-17 0)
(3 -1.13745e-16 0)
(3 -4.65619e-16 0)
(3 -4.35823e-16 0)
(3 -5.55605e-16 0)
(3 -1.60186e-16 0)
(3 4.01582e-16 0)
(3 2.25948e-16 0)
(3 -9.8359e-17 0)
(3 -4.25809e-16 0)
(3 -6.99068e-16 0)
(3 -6.65851e-16 0)
(3 -2.10935e-16 0)
(3 3.95191e-16 0)
(3 -3.43225e-15 0)
(3 3.83868e-14 0)
(3 1.97638e-08 0)
(2.99995 0.000402014 0)
(2.98537 0.0586814 0)
(2.3644 0.666724 0)
(3 4.90157e-17 0)
(3 4.24271e-18 0)
(3 1.74621e-16 0)
(3 6.09269e-16 0)
(3 8.48621e-16 0)
(3 6.67482e-16 0)
(3 1.32383e-16 0)
(3 -5.46632e-16 0)
(3 -7.06453e-16 0)
(3 -9.85636e-16 0)
(3 -9.75543e-16 0)
(3 -7.28585e-16 0)
(3 -4.601e-16 0)
(3 -2.27025e-16 0)
(3 1.7196e-16 0)
(3 3.33882e-16 0)
(3 5.14978e-16 0)
(3 1.1797e-15 0)
(3 7.32711e-16 0)
(3 4.94315e-16 0)
(3 8.48659e-12 0)
(3 7.73547e-07 0)
(2.99974 0.0025442 0)
(2.92734 0.149379 0)
(3 7.84198e-17 0)
(3 -1.76963e-17 0)
(3 6.11652e-16 0)
(3 5.85423e-16 0)
(3 1.16055e-15 0)
(3 1.17352e-15 0)
(3 1.41403e-15 0)
(3 4.65164e-16 0)
(3 -5.08007e-16 0)
(3 -1.08424e-15 0)
(3 -9.25957e-16 0)
(3 -8.66721e-16 0)
(3 -1.13497e-15 0)
(3 -9.35605e-16 0)
(3 1.22635e-16 0)
(3 1.65015e-15 0)
(3 1.55192e-15 0)
(3 1.60585e-15 0)
(3 1.24731e-15 0)
(3 1.11405e-16 0)
(3 1.49231e-15 0)
(3 6.16476e-10 0)
(3 1.21887e-05 0)
(2.99877 0.00869938 0)
(3 -1.0892e-16 0)
(3 1.28033e-16 0)
(3 -2.481e-17 0)
(3 7.36672e-17 0)
(3 4.48841e-16 0)
(3 2.93912e-16 0)
(3 3.69896e-16 0)
(3 3.80124e-16 0)
(3 3.94258e-17 0)
(3 -7.53985e-16 0)
(3 -1.01496e-15 0)
(3 -1.21232e-15 0)
(3 -1.21089e-15 0)
(3 -6.96982e-16 0)
(3 6.31952e-17 0)
(3 5.42746e-16 0)
(3 9.74534e-16 0)
(3 1.30737e-15 0)
(3 1.45791e-15 0)
(3 1.32565e-15 0)
(3 2.5182e-16 0)
(3 8.0858e-14 0)
(3 1.53451e-08 0)
(2.99998 8.24095e-05 0)
(3 -1.54755e-17 0)
(3 1.36162e-16 0)
(3 -2.83186e-16 0)
(3 -4.78345e-16 0)
(3 -9.73534e-17 0)
(3 2.70356e-16 0)
(3 -3.61637e-16 0)
(3 -3.16588e-16 0)
(3 2.77611e-16 0)
(3 4.01869e-16 0)
(3 -2.76445e-17 0)
(3 -4.66639e-16 0)
(3 -4.60475e-17 0)
(3 2.63138e-16 0)
(3 -1.23787e-16 0)
(3 -7.71645e-16 0)
(3 3.58836e-16 0)
(3 1.10563e-15 0)
(3 1.7231e-15 0)
(3 1.56276e-15 0)
(3 -3.194e-16 0)
(3 -3.90899e-16 0)
(3 4.72398e-12 0)
(3 1.4131e-07 0)
(3 -7.22659e-18 0)
(3 -8.72398e-17 0)
(3 -1.67361e-16 0)
(3 -5.89954e-16 0)
(3 -7.63609e-16 0)
(3 -5.16284e-16 0)
(3 -4.76971e-16 0)
(3 -2.88526e-16 0)
(3 6.97053e-17 0)
(3 1.00611e-15 0)
(3 1.45996e-15 0)
(3 1.35211e-15 0)
(3 1.04498e-15 0)
(3 4.948e-16 0)
(3 3.94777e-16 0)
(3 -4.31415e-18 0)
(3 6.76777e-16 0)
(3 1.58809e-15 0)
(3 1.64903e-15 0)
(3 9.83777e-16 0)
(3 4.08964e-16 0)
(3 1.71247e-16 0)
(3 8.58127e-16 0)
(3 1.06464e-10 0)
(3 6.50395e-19 0)
(3 -1.48825e-16 0)
(3 -1.83337e-16 0)
(3 -2.49415e-16 0)
(3 -7.74057e-16 0)
(3 -1.31581e-15 0)
(3 -6.95708e-16 0)
(3 -6.07762e-16 0)
(3 5.48009e-16 0)
(3 1.24905e-15 0)
(3 1.87117e-15 0)
(3 2.41937e-15 0)
(3 2.0321e-15 0)
(3 7.82776e-16 0)
(3 5.34854e-16 0)
(3 3.19649e-16 0)
(3 5.73086e-16 0)
(3 1.05182e-15 0)
(3 1.59121e-16 0)
(3 -8.03873e-16 0)
(3 -5.52783e-16 0)
(3 -3.77511e-16 0)
(3 2.52636e-16 0)
(3 1.27776e-14 0)
(3 6.29453e-17 0)
(3 -1.16151e-16 0)
(3 -9.3009e-17 0)
(3 4.44037e-16 0)
(3 2.15184e-16 0)
(3 -1.57031e-16 0)
(3 -1.68682e-16 0)
(3 3.94946e-16 0)
(3 7.61886e-16 0)
(3 1.35292e-15 0)
(3 1.29248e-15 0)
(3 1.39404e-15 0)
(3 1.16141e-15 0)
(3 8.97882e-16 0)
(3 4.36076e-16 0)
(3 1.00577e-16 0)
(3 -4.07382e-16 0)
(3 -1.88521e-16 0)
(3 -1.08393e-15 0)
(3 -1.69655e-15 0)
(3 -1.70703e-15 0)
(3 -1.11697e-15 0)
(3 -3.65898e-16 0)
(3 -8.05117e-17 0)
(3 4.93251e-18 0)
(3 -1.19721e-16 0)
(3 -1.89759e-16 0)
(3 -4.08627e-17 0)
(3 2.85664e-16 0)
(3 3.49753e-16 0)
(3 -1.58479e-16 0)
(3 2.71944e-16 0)
(3 4.16695e-16 0)
(3 5.40369e-16 0)
(3 3.19186e-16 0)
(3 -5.46733e-16 0)
(3 -6.20062e-16 0)
(3 -3.52297e-17 0)
(3 5.83116e-16 0)
(3 6.29641e-16 0)
(3 -2.06059e-16 0)
(3 -9.01326e-16 0)
(3 -1.02714e-15 0)
(3 -1.3125e-15 0)
(3 -1.28771e-15 0)
(3 -2.21469e-16 0)
(3 -2.04916e-16 0)
(3 -6.64718e-16 0)
(3 8.96442e-17 0)
(3 7.46534e-17 0)
(3 -2.06827e-16 0)
(3 -4.3458e-16 0)
(3 4.80496e-17 0)
(3 2.43007e-16 0)
(3 -1.47698e-16 0)
(3 -4.32978e-16 0)
(3 -4.04081e-18 0)
(3 1.83399e-16 0)
(3 -3.97533e-16 0)
(3 -8.34071e-16 0)
(3 -1.24987e-15 0)
(3 -7.16816e-16 0)
(3 -1.61146e-16 0)
(3 1.42742e-16 0)
(3 -6.15162e-16 0)
(3 -8.0603e-16 0)
(3 -9.03185e-16 0)
(3 -1.07551e-15 0)
(3 -7.60471e-16 0)
(3 -3.61001e-16 0)
(3 -2.66947e-16 0)
(3 -3.4082e-16 0)
(1.49181 1.2657 0)
(2.0909 1.23728 0)
(2.32229 1.63084 0)
(2.30612 0.827193 0)
(2.3935 0.336469 0)
(2.56348 -0.0987758 0)
(2.6267 -0.250011 0)
(2.58954 -0.227352 0)
(2.45784 -0.28398 0)
(2.41288 -0.399561 0)
(2.4403 -0.381264 0)
(2.45444 -0.229654 0)
(2.43977 -0.153205 0)
(2.40928 -0.126785 0)
(2.38621 -0.0971487 0)
(2.36121 -0.0814062 0)
(2.34832 -0.0651473 0)
(2.37281 -0.0363936 0)
(2.40163 -0.0214351 0)
(2.40816 -0.0176016 0)
(2.40985 -0.0127881 0)
(2.39355 -0.00875252 0)
(2.38442 -0.00999913 0)
(2.37263 -0.00916299 0)
(2.36779 -0.00697772 0)
(2.37468 -0.00686549 0)
(2.38875 -0.00956767 0)
(2.39797 -0.00871539 0)
(2.39981 -0.00663171 0)
(2.03125 0.0252903 0)
(0.882923 0.046036 0)
(0.697951 0.0152537 0)
(0.699822 -0.00598955 0)
(0.727134 -0.025434 0)
(0.771622 -0.0369398 0)
(0.8209 -0.0397427 0)
(0.865974 -0.0397621 0)
(0.908814 -0.0385427 0)
(0.95012 -0.0374651 0)
(0.992994 -0.037216 0)
(1.03933 -0.0370021 0)
(1.08784 -0.0356551 0)
(1.13489 -0.0321754 0)
(1.17517 -0.0269648 0)
(1.20881 -0.0224935 0)
(1.24009 -0.0199353 0)
(1.27337 -0.0188913 0)
(1.30996 -0.0186537 0)
(1.34723 -0.0182613 0)
(1.38031 -0.0159145 0)
(1.40775 -0.0115082 0)
(1.43358 -0.0070641 0)
(1.46073 -0.0037745 0)
(1.49287 -0.00289754 0)
(1.52884 -0.00508652 0)
(1.55887 -0.0104078 0)
(1.582 -0.0109797 0)
(1.6034 -0.00816826 0)
(1.62139 -0.00173159 0)
(1.64005 0.00292284 0)
(1.66017 0.00470946 0)
(1.68473 0.00429349 0)
(1.71122 0.00190764 0)
(1.73586 -0.00374134 0)
(1.75833 -0.00727817 0)
(1.77969 -0.00692937 0)
(1.79491 -0.00327233 0)
(1.8083 0.00216575 0)
(1.82509 0.00521012 0)
(1.84354 0.00566612 0)
(1.86421 0.00538182 0)
(1.88646 0.00330062 0)
(1.90493 0.000679988 0)
(1.92337 0.000171908 0)
(1.9379 0.00151865 0)
(1.94647 0.00463228 0)
(1.95717 0.00744522 0)
(1.9738 0.00818002 0)
(1.99233 0.00831182 0)
(2.01343 0.00813448 0)
(2.03547 0.00604751 0)
(2.0526 0.00422014 0)
(2.06834 0.00349091 0)
(2.07452 0.00473878 0)
(2.07381 0.00761909 0)
(2.08306 0.0090537 0)
(2.09957 0.00915819 0)
(2.11753 0.00927241 0)
(2.13938 0.00898095 0)
(2.15984 0.00724451 0)
(2.17764 0.00603889 0)
(2.19418 0.00458003 0)
(2.2005 0.00478112 0)
(2.19513 0.00816435 0)
(2.19602 0.0112257 0)
(2.21472 0.0114244 0)
(1.75224 1.12411 0)
(2.29945 0.678183 0)
(2.55174 0.476344 0)
(2.63757 0.243086 0)
(2.69464 -0.170473 0)
(2.73968 -0.519176 0)
(2.72442 -0.598339 0)
(2.74065 -0.614644 0)
(2.71161 -0.554371 0)
(2.66071 -0.521358 0)
(2.59845 -0.452295 0)
(2.52772 -0.270877 0)
(2.50677 -0.16915 0)
(2.47338 -0.158144 0)
(2.44372 -0.115182 0)
(2.42881 -0.0711236 0)
(2.41922 -0.0446827 0)
(2.43104 -0.00641124 0)
(2.44604 0.00901362 0)
(2.43676 0.00969004 0)
(2.42808 0.00623043 0)
(2.4162 -0.0052762 0)
(2.40441 -0.0275592 0)
(2.40098 -0.0274574 0)
(2.40104 -0.0141791 0)
(2.40597 -0.00763418 0)
(2.41293 -0.0128698 0)
(2.42443 -0.0104367 0)
(2.4264 -0.00488694 0)
(2.17466 0.0942436 0)
(0.958572 0.131432 0)
(0.768967 0.0139913 0)
(0.802981 -0.0655816 0)
(0.861471 -0.0729533 0)
(0.908361 -0.0747986 0)
(0.951366 -0.0676586 0)
(0.989076 -0.0612309 0)
(1.02294 -0.0518547 0)
(1.05321 -0.0433997 0)
(1.08479 -0.0386775 0)
(1.12055 -0.0385981 0)
(1.16187 -0.042075 0)
(1.2059 -0.0433128 0)
(1.24408 -0.0363856 0)
(1.27137 -0.0245655 0)
(1.29499 -0.015124 0)
(1.31893 -0.0126299 0)
(1.34844 -0.0176404 0)
(1.38553 -0.025835 0)
(1.42349 -0.0290693 0)
(1.45332 -0.0236559 0)
(1.47692 -0.0123299 0)
(1.49882 0.00249239 0)
(1.52002 0.011588 0)
(1.54147 0.00885595 0)
(1.5683 -0.00348912 0)
(1.59789 -0.0172188 0)
(1.62354 -0.0210279 0)
(1.64562 -0.0163972 0)
(1.66648 -0.00427454 0)
(1.68458 0.00967002 0)
(1.70137 0.0175469 0)
(1.71917 0.0165112 0)
(1.73933 0.00865265 0)
(1.76302 -0.00379236 0)
(1.78602 -0.015362 0)
(1.80666 -0.0176356 0)
(1.82703 -0.00994829 0)
(1.84381 0.0051523 0)
(1.85659 0.0178867 0)
(1.87058 0.021896 0)
(1.88731 0.0190559 0)
(1.90669 0.0111047 0)
(1.92451 0.000600043 0)
(1.94105 -0.0061557 0)
(1.95802 -0.00446958 0)
(1.97263 0.00621928 0)
(1.98471 0.0190665 0)
(1.99762 0.0264482 0)
(2.01406 0.0273921 0)
(2.03171 0.0234906 0)
(2.0497 0.0157908 0)
(2.06549 0.00611672 0)
(2.07825 -0.000213254 0)
(2.08669 0.00442776 0)
(2.09484 0.0158041 0)
(2.1055 0.024662 0)
(2.12008 0.0280549 0)
(2.13699 0.0279898 0)
(2.15509 0.0240316 0)
(2.17316 0.0177277 0)
(2.18923 0.00967131 0)
(2.20131 0.00242513 0)
(2.20683 0.00610825 0)
(2.20708 0.0223275 0)
(2.21791 0.0315993 0)
(1.68284 1.0272 0)
(2.01216 0.884797 0)
(2.30498 0.638973 0)
(2.52616 0.38801 0)
(2.67201 0.129911 0)
(2.695 -0.107229 0)
(2.69298 -0.188371 0)
(2.73971 -0.19648 0)
(2.79468 -0.283148 0)
(2.76221 -0.421529 0)
(2.74949 -0.486352 0)
(2.70267 -0.458148 0)
(2.66373 -0.403513 0)
(2.65163 -0.373022 0)
(2.62454 -0.318924 0)
(2.60643 -0.237347 0)
(2.59797 -0.175687 0)
(2.5622 -0.0869679 0)
(2.52934 -0.0572419 0)
(2.50186 -0.0452334 0)
(2.48273 -0.0153237 0)
(2.47388 -0.00793703 0)
(2.47429 -0.00979197 0)
(2.47713 -0.00457356 0)
(2.47525 0.00131591 0)
(2.47058 -0.000155723 0)
(2.46954 -0.010886 0)
(2.47497 -0.0145334 0)
(2.47537 -0.020407 0)
(2.43011 -0.0506523 0)
(1.28582 0.0922488 0)
(0.996602 0.00310985 0)
(1.06066 -0.0894747 0)
(1.13109 -0.0986372 0)
(1.16056 -0.0810476 0)
(1.18545 -0.0689705 0)
(1.21115 -0.0750497 0)
(1.23892 -0.0825269 0)
(1.26006 -0.0880372 0)
(1.27845 -0.0854094 0)
(1.29692 -0.078837 0)
(1.31844 -0.0730796 0)
(1.34607 -0.0709083 0)
(1.37717 -0.0709976 0)
(1.40193 -0.0672398 0)
(1.42072 -0.058476 0)
(1.43698 -0.0426248 0)
(1.45591 -0.0300482 0)
(1.47827 -0.0267641 0)
(1.50682 -0.031419 0)
(1.5368 -0.0377841 0)
(1.55986 -0.0378746 0)
(1.57943 -0.0325966 0)
(1.59627 -0.0193618 0)
(1.60675 -0.00246764 0)
(1.62133 0.00682859 0)
(1.64039 0.0057879 0)
(1.66443 -0.00265198 0)
(1.69401 -0.00956189 0)
(1.71831 -0.00932521 0)
(1.73767 -0.00542271 0)
(1.75449 0.0043605 0)
(1.76307 0.0157253 0)
(1.77016 0.0196858 0)
(1.78594 0.0152319 0)
(1.80565 0.00679236 0)
(1.83321 -0.00267363 0)
(1.85764 -0.00504001 0)
(1.87701 -0.00224905 0)
(1.89466 0.00904842 0)
(1.90431 0.0248744 0)
(1.9069 0.0344201 0)
(1.91721 0.0305611 0)
(1.93321 0.0229068 0)
(1.95306 0.014198 0)
(1.97555 0.00860993 0)
(1.99301 0.00904875 0)
(2.01022 0.0163557 0)
(2.023 0.0298326 0)
(2.0295 0.0403274 0)
(2.03814 0.0399005 0)
(2.05178 0.0326962 0)
(2.06625 0.024621 0)
(2.08297 0.0184304 0)
(2.09938 0.015027 0)
(2.1149 0.0185173 0)
(2.12805 0.0296129 0)
(2.13714 0.0407765 0)
(2.14562 0.0447247 0)
(2.15775 0.041453 0)
(2.17175 0.0349 0)
(2.18476 0.0272707 0)
(2.19763 0.020906 0)
(2.21225 0.0188875 0)
(2.22464 0.0273068 0)
(2.23643 0.0421586 0)
(1.60142 0.985189 0)
(1.87448 0.887182 0)
(2.16357 0.664232 0)
(2.3505 0.477608 0)
(2.4362 0.401011 0)
(2.50567 0.252546 0)
(2.6355 -0.00389676 0)
(2.67497 -0.188662 0)
(2.71864 -0.240758 0)
(2.75943 -0.336626 0)
(2.74889 -0.459147 0)
(2.72729 -0.491334 0)
(2.76294 -0.468859 0)
(2.76242 -0.452702 0)
(2.73571 -0.445438 0)
(2.70511 -0.400432 0)
(2.69351 -0.359201 0)
(2.66346 -0.267007 0)
(2.62881 -0.196895 0)
(2.60261 -0.169803 0)
(2.57372 -0.125544 0)
(2.55903 -0.0802168 0)
(2.55461 -0.0777482 0)
(2.5418 -0.0467923 0)
(2.53815 -0.000878108 0)
(2.52412 0.00662248 0)
(2.52002 0.0102437 0)
(2.51857 0.00394857 0)
(2.5111 -0.0228838 0)
(2.35412 -0.27179 0)
(1.82976 -0.201303 0)
(1.27535 -0.0571453 0)
(1.30344 -0.0528692 0)
(1.36946 -0.0847876 0)
(1.39395 -0.0969417 0)
(1.4037 -0.0925085 0)
(1.41301 -0.0846573 0)
(1.43337 -0.0795909 0)
(1.45042 -0.0762536 0)
(1.46489 -0.0741619 0)
(1.47568 -0.067599 0)
(1.4842 -0.0570854 0)
(1.49719 -0.0514606 0)
(1.51493 -0.050892 0)
(1.53654 -0.0529055 0)
(1.55451 -0.052096 0)
(1.57029 -0.0447455 0)
(1.58274 -0.0294509 0)
(1.59564 -0.0136418 0)
(1.61306 -0.00603655 0)
(1.6329 -0.00664198 0)
(1.65471 -0.0131668 0)
(1.67246 -0.0197766 0)
(1.68798 -0.0238902 0)
(1.7006 -0.0214038 0)
(1.70833 -0.00790474 0)
(1.71904 0.00825828 0)
(1.73706 0.0160452 0)
(1.75889 0.0162052 0)
(1.78293 0.00839068 0)
(1.8015 -0.00044407 0)
(1.81649 -0.00804294 0)
(1.82721 -0.0118938 0)
(1.83479 -0.00697215 0)
(1.84469 0.00419281 0)
(1.86134 0.0128688 0)
(1.88007 0.0160657 0)
(1.90085 0.013607 0)
(1.91947 0.00961936 0)
(1.93649 0.00684211 0)
(1.94939 0.00706172 0)
(1.95432 0.0155199 0)
(1.95614 0.0283674 0)
(1.96847 0.0351118 0)
(1.98397 0.0366095 0)
(2.00213 0.0334667 0)
(2.02131 0.0288127 0)
(2.0375 0.0271901 0)
(2.05273 0.0276922 0)
(2.06043 0.0328893 0)
(2.06115 0.0398409 0)
(2.06777 0.0417661 0)
(2.08352 0.0413411 0)
(2.09954 0.0410326 0)
(2.11854 0.0387609 0)
(2.13647 0.0369223 0)
(2.15217 0.0371331 0)
(2.16475 0.0411127 0)
(2.16948 0.0480715 0)
(2.17159 0.0514634 0)
(2.1784 0.048925 0)
(2.19109 0.0450494 0)
(2.20635 0.0448359 0)
(2.22258 0.045523 0)
(2.23831 0.047999 0)
(2.26088 0.0516817 0)
(1.55489 0.929847 0)
(1.79981 0.842451 0)
(1.99697 0.729832 0)
(2.14902 0.623235 0)
(2.31364 0.427176 0)
(2.415 0.30373 0)
(2.45187 0.256473 0)
(2.54965 0.0791898 0)
(2.60045 -0.0759905 0)
(2.64487 -0.0973325 0)
(2.67358 -0.181527 0)
(2.68129 -0.318556 0)
(2.70621 -0.336381 0)
(2.73452 -0.344323 0)
(2.73274 -0.364311 0)
(2.7287 -0.400083 0)
(2.72831 -0.428321 0)
(2.71662 -0.410057 0)
(2.69823 -0.361039 0)
(2.67555 -0.308473 0)
(2.6489 -0.263015 0)
(2.62505 -0.193248 0)
(2.61762 -0.170846 0)
(2.59962 -0.119712 0)
(2.59233 -0.06838 0)
(2.57449 -0.0383744 0)
(2.57454 -0.019712 0)
(2.54044 -0.045622 0)
(2.4176 -0.178072 0)
(2.09136 -0.464823 0)
(2.00118 -0.601462 0)
(1.61513 -0.311721 0)
(1.4597 -0.15056 0)
(1.48215 -0.0798264 0)
(1.50616 -0.0667825 0)
(1.51684 -0.0694101 0)
(1.53098 -0.0803519 0)
(1.54272 -0.0852199 0)
(1.55766 -0.0869565 0)
(1.57402 -0.08127 0)
(1.58592 -0.0717744 0)
(1.59394 -0.0608454 0)
(1.59841 -0.0495891 0)
(1.60953 -0.0449985 0)
(1.6245 -0.0447304 0)
(1.64378 -0.0453527 0)
(1.66133 -0.0437565 0)
(1.67708 -0.0377784 0)
(1.69028 -0.0274052 0)
(1.69944 -0.0166157 0)
(1.71188 -0.0119915 0)
(1.72875 -0.0131339 0)
(1.74476 -0.0166973 0)
(1.76006 -0.018446 0)
(1.77457 -0.0166787 0)
(1.78745 -0.00802247 0)
(1.79834 0.00674573 0)
(1.80815 0.019767 0)
(1.82374 0.0233082 0)
(1.84215 0.0194019 0)
(1.85826 0.0105536 0)
(1.87226 0.00234138 0)
(1.88553 -0.00176864 0)
(1.89924 0.000154683 0)
(1.91206 0.00877569 0)
(1.92254 0.0209484 0)
(1.93373 0.0293443 0)
(1.94836 0.0310206 0)
(1.96399 0.0290476 0)
(1.97902 0.025464 0)
(1.99251 0.0224131 0)
(2.00381 0.0237046 0)
(2.01136 0.0329802 0)
(2.01543 0.0461482 0)
(2.02483 0.0530132 0)
(2.03998 0.0538689 0)
(2.05537 0.0508883 0)
(2.07004 0.0449405 0)
(2.08266 0.0382895 0)
(2.09118 0.0332059 0)
(2.09602 0.0347821 0)
(2.10267 0.0436985 0)
(2.1152 0.0523747 0)
(2.13126 0.0564745 0)
(2.14748 0.0579015 0)
(2.16336 0.0564911 0)
(2.17833 0.052741 0)
(2.18977 0.0479344 0)
(2.19436 0.0447334 0)
(2.19523 0.046527 0)
(2.20054 0.0522636 0)