/*--------------------------------*- C++ -*----------------------------------*\
  =========                 |
  \\      /  F ield         | OpenFOAM: The Open Source CFD Toolbox
   \\    /   O peration     | Website:  https://openfoam.org
    \\  /    A nd           | Version:  7
     \\/     M anipulation  |
\*---------------------------------------------------------------------------*/
FoamFile
{
    version     2.0;
    format      ascii;
    class       volScalarField;
    location    "3.4";
    object      p;
}
// * * * * * * * * * * * * * * * * * * * * * * * * * * * * * * * * * * * * * //

dimensions      [1 -1 -2 0 0 0 0];

internalField   nonuniform List<scalar> 
64512
(
1
1
1
1
1
1
1
1
1
1
1
1
1
1
1
1
1
1
1
1
1
1
1
1
1
1
1
1
1
1
1
1
1
1
1
1
1
1
1
1
1
1
1
1
1
1
1
1
1
6.50484
10.3902
10.4529
10.4996
10.5574
10.6152
10.6751
10.7353
10.7939
10.8496
10.9026
10.9543
11.0061
11.058
11.109
11.1577
11.2032
11.2463
11.289
11.3332
11.3788
11.4249
11.4681
11.5061
11.5398
11.5717
11.6031
11.6345
11.6675
11.7033
11.7415
11.7802
11.8165
11.8481
11.8741
11.8956
11.9147
11.933
11.9514
11.9697
11.9873
12.0039
12.0192
12.0328
12.0439
12.0519
12.0578
1
1
1
1
1
1
1
1
1
1
1
1
1
1
1
1
1
1
1
1
1
1
1
1
1
1
1
1
1
1
1
1
1
1
1
1
1
1
1
1
1
1
1
1
1
1
1
1
1
6.45566
10.3789
10.4526
10.4978
10.5566
10.6146
10.6747
10.7347
10.7933
10.849
10.902
10.9537
11.0054
11.0573
11.108
11.1564
11.2017
11.2447
11.2874
11.3314
11.3769
11.4227
11.4657
11.5038
11.5378
11.5701
11.6018
11.6335
11.6665
11.7021
11.7398
11.7779
11.8137
11.845
11.8711
11.8927
11.9118
11.9301
11.9483
11.9664
11.9839
12.0005
12.0158
12.0294
12.0405
12.0484
12.0542
1
1
1
1
1
1
1
1
1
1
1
1
1
1
1
1
1
1
1
1
1
1
1
1
1
1
1
1
1
1
1
1
1
1
1
1
1
1
1
1
1
1
1
1
1
1
1
1
1
6.35683
10.3726
10.4473
10.4928
10.5532
10.6117
10.6723
10.7325
10.7911
10.8468
10.8998
10.9514
11.0032
11.055
11.1054
11.1534
11.1986
11.2414
11.284
11.328
11.3732
11.4189
11.4617
11.4999
11.5343
11.5671
11.5993
11.6314
11.6646
11.6999
11.737
11.7742
11.8093
11.8403
11.8663
11.8881
11.9073
11.9255
11.9435
11.9612
11.9785
11.995
12.0102
12.0239
12.035
12.0429
12.0488
1
1
1
1
1
1
1
1
1
1
1
1
1
1
1
1
1
1
1
1
1
1
1
1
1
1
1
1
1
1
1
1
1
1
1
1
1
1
1
1
1
1
1
1
1
1
1
1
1
6.21385
10.3619
10.4416
10.4874
10.5493
10.6079
10.669
10.7294
10.7882
10.844
10.8968
10.948
10.9995
11.0511
11.1009
11.1486
11.1936
11.2362
11.2786
11.3225
11.3673
11.4128
11.4554
11.4941
11.5291
11.5627
11.5955
11.628
11.6612
11.6961
11.7323
11.7684
11.8026
11.8332
11.8593
11.8814
11.9008
11.9188
11.9363
11.9535
11.9704
11.9867
12.002
12.0156
12.0267
12.0346
12.0405
1
1
1
1
1
1
1
1
1
1
1
1
1
1
1
1
1
1
1
1
1
1
1
1
1
1
1
1
1
1
1
1
1
1
1
1
1
1
1
1
1
1
1
1
1
1
1
1
1
6.0258
10.3451
10.4347
10.4817
10.5444
10.6029
10.6644
10.7252
10.7843
10.8404
10.8928
10.9434
10.9942
11.0453
11.0946
11.1418
11.1868
11.2293
11.2715
11.3152
11.3595
11.4049
11.4475
11.4867
11.5225
11.5568
11.5902
11.623
11.6562
11.6904
11.7254
11.7603
11.7936
11.8239
11.8503
11.8728
11.8924
11.9103
11.9272
11.9439
11.9603
11.9763
11.9914
12.0049
12.0159
12.0237
12.0294
1
1
1
1
1
1
1
1
1
1
1
1
1
1
1
1
1
1
1
1
1
1
1
1
1
1
1
1
1
1
1
1
1
1
1
1
1
1
1
1
1
1
1
1
1
1
1
1
1
5.79257
10.3192
10.4275
10.4765
10.5393
10.5973
10.6588
10.7198
10.7792
10.8355
10.8877
10.9376
10.9875
11.0377
11.0864
11.1332
11.1782
11.2208
11.2627
11.3061
11.3501
11.3953
11.4381
11.4778
11.5145
11.5494
11.5833
11.6161
11.649
11.6823
11.7161
11.7498
11.7822
11.8122
11.8389
11.862
11.8818
11.8994
11.9158
11.9319
11.9479
11.9637
11.9787
11.992
12.0028
12.0105
12.0161
1
1
1
1
1
1
1
1
1
1
1
1
1
1
1
1
1
1
1
1
1
1
1
1
1
1
1
1
1
1
1
1
1
1
1
1
1
1
1
1
1
1
1
1
1
1
1
1
1
5.51599
10.2794
10.4204
10.4722
10.5341
10.5914
10.6522
10.7127
10.772
10.8287
10.8811
10.9303
10.9792
11.0285
11.0765
11.1226
11.1677
11.2103
11.252
11.2953
11.3389
11.384
11.427
11.4673
11.5048
11.5403
11.5743
11.607
11.6392
11.6715
11.704
11.7365
11.7681
11.798
11.8251
11.8488
11.8689
11.8863
11.9021
11.9176
11.9332
11.9489
11.9638
11.977
11.9877
11.9953
12.001
1
1
1
1
1
1
1
1
1
1
1
1
1
1
1
1
1
1
1
1
1
1
1
1
1
1
1
1
1
1
1
1
1
1
1
1
1
1
1
1
1
1
1
1
1
1
1
1
1
5.20048
10.2201
10.414
10.4674
10.5282
10.585
10.6451
10.7046
10.7631
10.8196
10.8721
10.921
10.9692
11.0179
11.0655
11.111
11.1559
11.1986
11.2403
11.2834
11.327
11.3717
11.4149
11.4556
11.4938
11.5294
11.5634
11.5956
11.627
11.658
11.6893
11.7206
11.7516
11.7815
11.8089
11.833
11.8533
11.8705
11.8859
11.9008
11.9161
11.9314
11.9461
11.9591
11.9697
11.9772
11.9829
1
1
1
1
1
1
1
1
1
1
1
1
1
1
1
1
1
1
1
1
1
1
1
1
1
1
1
1
1
1
1
1
1
1
1
1
1
1
1
1
1
1
1
1
1
1
1
1
1
4.85298
10.1352
10.4072
10.4615
10.5211
10.5778
10.6372
10.6956
10.753
10.8087
10.861
10.9095
10.9572
11.0056
11.0529
11.0979
11.1426
11.1855
11.2271
11.2702
11.3137
11.358
11.4014
11.4424
11.4812
11.5168
11.5507
11.5823
11.6128
11.6427
11.6728
11.7033
11.7338
11.7634
11.791
11.8152
11.8355
11.8524
11.8673
11.8818
11.8966
11.9117
11.926
11.9386
11.9491
11.9565
11.9622
1
1
1
1
1
1
1
1
1
1
1
1
1
1
1
1
1
1
1
1
1
1
1
1
1
1
1
1
1
1
1
1
1
1
1
1
1
1
1
1
1
1
1
1
1
1
1
1
1
4.47879
10.0242
10.3984
10.4521
10.5119
10.5692
10.6284
10.686
10.742
10.7963
10.8482
10.8965
10.9438
10.9918
11.0391
11.0838
11.1281
11.171
11.2125
11.2554
11.2988
11.3425
11.3859
11.4268
11.4657
11.5011
11.5345
11.5654
11.5951
11.624
11.6533
11.6832
11.7133
11.7427
11.7702
11.7943
11.8146
11.8314
11.8462
11.8604
11.875
11.8896
11.9036
11.916
11.9263
11.9336
11.9393
1
1
1
1
1
1
1
1
1
1
1
1
1
1
1
1
1
1
1
1
1
1
1
1
1
1
1
1
1
1
1
1
1
1
1
1
1
1
1
1
1
1
1
1
1
1
1
1
1
4.0797
9.88542
10.3878
10.4399
10.5007
10.5589
10.6182
10.6755
10.7306
10.7836
10.835
10.8832
10.9301
10.9778
11.0253
11.07
11.1137
11.1567
11.198
11.2404
11.2833
11.3259
11.369
11.4092
11.4478
11.4824
11.5152
11.5451
11.574
11.6023
11.6312
11.6608
11.6905
11.7194
11.7465
11.7704
11.7906
11.8075
11.8223
11.8364
11.8507
11.8649
11.8785
11.8905
11.9007
11.9079
11.9136
1
1
1
1
1
1
1
1
1
1
1
1
1
1
1
1
1
1
1
1
1
1
1
1
1
1
1
1
1
1
1
1
1
1
1
1
1
1
1
1
1
1
1
1
1
1
1
1
1
3.65848
9.71286
10.3742
10.4244
10.487
10.546
10.6055
10.6625
10.7172
10.7694
10.8201
10.8682
10.9148
10.9621
11.0097
11.0547
11.0979
11.1411
11.1822
11.2242
11.2666
11.3084
11.351
11.3903
11.4283
11.462
11.4937
11.5227
11.5508
11.5785
11.607
11.6363
11.6654
11.6936
11.7199
11.7433
11.7635
11.7806
11.7956
11.8097
11.8236
11.8374
11.8505
11.8623
11.8724
11.8794
11.8851
1
1
1
1
1
1
1
1
1
1
1
1
1
1
1
1
1
1
1
1
1
1
1
1
1
1
1
1
1
1
1
1
1
1
1
1
1
1
1
1
1
1
1
1
1
1
1
1
1
3.22215
9.49977
10.3606
10.4077
10.472
10.531
10.5904
10.6472
10.7015
10.7533
10.8035
10.8518
10.8979
10.9448
10.9928
11.0382
11.0811
11.1242
11.1651
11.2065
11.2482
11.2891
11.3307
11.3691
11.4063
11.4392
11.47
11.4981
11.5256
11.5529
11.581
11.6097
11.638
11.6651
11.6904
11.7132
11.7333
11.7506
11.7657
11.7797
11.7932
11.8066
11.8193
11.8308
11.8409
11.8478
11.8534
1
1
1
1
1
1
1
1
1
1
1
1
1
1
1
1
1
1
1
1
1
1
1
1
1
1
1
1
1
1
1
1
1
1
1
1
1
1
1
1
1
1
1
1
1
1
1
1
1
2.7746
9.22941
10.3556
10.3974
10.4609
10.5179
10.5762
10.632
10.6857
10.7372
10.7872
10.8357
10.8816
10.9273
10.9744
11.0195
11.0618
11.1043
11.1449
11.1857
11.2268
11.267
11.3079
11.3451
11.3817
11.4139
11.4438
11.4713
11.4983
11.5253
11.5529
11.5809
11.6082
11.6341
11.6583
11.6805
11.7003
11.7177
11.7329
11.7466
11.7596
11.7724
11.7847
11.796
11.806
11.8127
11.8182
1
1
1
1
1
1
1
1
1
1
1
1
1
1
1
1
1
1
1
1
1
1
1
1
1
1
1
1
1
1
1
1
1
1
1
1
1
1
1
1
1
1
1
1
1
1
1
1
1
2.33077
8.88466
10.365
10.3885
10.4509
10.5047
10.5614
10.6166
10.6701
10.7212
10.7706
10.8187
10.8648
10.91
10.9562
11.001
11.0427
11.0841
11.1242
11.1638
11.2039
11.243
11.2825
11.3185
11.3541
11.3856
11.4148
11.4419
11.4687
11.4956
11.5226
11.5496
11.5757
11.6002
11.6232
11.6447
11.6642
11.6816
11.6967
11.71
11.7224
11.7346
11.7465
11.7575
11.7674
11.774
11.7793
1
1
1
1
1
1
1
1
1
1
1
1
1
1
1
1
1
1
1
1
1
1
1
1
1
1
1
1
1
1
1
1
1
1
1
1
1
1
1
1
1
1
1
1
1
1
1
1
1
1.90226
8.45078
10.382
10.3923
10.445
10.4932
10.5465
10.5998
10.6523
10.703
10.7519
10.7998
10.8468
10.8916
10.9373
10.9817
11.0229
11.0631
11.1026
11.1408
11.1795
11.2169
11.2547
11.2895
11.324
11.3551
11.384
11.4108
11.4373
11.4636
11.4896
11.5152
11.5398
11.563
11.5851
11.606
11.6253
11.6426
11.6575
11.6704
11.682
11.6932
11.7043
11.7149
11.7244
11.7307
11.7358
1
1
1
1
1
1
1
1
1
1
1
1
1
1
1
1
1
1
1
1
1
1
1
1
1
1
1
1
1
1
1
1
1
1
1
1
1
1
1
1
1
1
1
1
1
1
1
1
1
1.52589
7.94746
10.4127
10.3772
10.4281
10.4732
10.5255
10.5798
10.6328
10.6835
10.7316
10.7784
10.825
10.8702
10.9155
10.9598
11.0009
11.04
11.0789
11.1159
11.1534
11.1892
11.2252
11.2591
11.2924
11.323
11.3515
11.3778
11.4034
11.4287
11.4533
11.4775
11.5007
11.5226
11.5437
11.5639
11.5829
11.5999
11.6145
11.6267
11.6373
11.6475
11.658
11.6681
11.6771
11.6831
11.688
1
1
1
1
1
1
1
1
1
1
1
1
1
1
1
1
1
1
1
1
1
1
1
1
1
1
1
1
1
1
1
1
1
1
1
1
1
1
1
1
1
1
1
1
1
1
1
1
1
1.21248
7.34805
10.4005
10.3681
10.4058
10.4515
10.5023
10.5548
10.607
10.6579
10.7072
10.7548
10.801
10.846
10.8908
10.935
10.9763
11.0147
11.0528
11.0888
11.1253
11.1598
11.1939
11.2272
11.2593
11.2894
11.3172
11.3427
11.3672
11.3911
11.4143
11.4369
11.4586
11.4791
11.4989
11.5183
11.5368
11.5535
11.5676
11.5791
11.5888
11.5978
11.6071
11.6162
11.6243
11.6298
11.6342
1
1
1
1
1
1
1
1
1
1
1
1
1
1
1
1
1
1
1
1
1
1
1
1
1
1
1
1
1
1
1
1
1
1
1
1
1
1
1
1
1
1
1
1
1
1
1
1
1
1.01069
6.69213
10.2993
10.3179
10.3617
10.4157
10.472
10.5295
10.5846
10.6359
10.6828
10.7282
10.7732
10.818
10.8625
10.9064
10.9478
10.9859
11.0231
11.0587
11.0942
11.1279
11.1604
11.1931
11.2242
11.2539
11.2807
11.3054
11.3285
11.3509
11.3725
11.3933
11.4133
11.4322
11.4505
11.4687
11.4862
11.5022
11.5156
11.5263
11.535
11.5428
11.551
11.559
11.5662
11.5711
11.5751
1
1
1
1
1
1
1
1
1
1
1
1
1
1
1
1
1
1
1
1
1
1
1
1
1
1
1
1
1
1
1
1
1
1
1
1
1
1
1
1
1
1
1
1
1
1
1
1
1
1.00006
5.92348
10.165
10.2751
10.3315
10.3906
10.4438
10.4975
10.5504
10.6017
10.6505
10.6966
10.7408
10.7851
10.8291
10.8731
10.9153
10.9536
10.9902
11.0255
11.0599
11.0935
11.1247
11.1567
11.1869
11.216
11.2418
11.2655
11.2871
11.308
11.3279
11.3469
11.3649
11.3819
11.3984
11.415
11.4313
11.4462
11.4587
11.4685
11.4762
11.4829
11.4894
11.4955
11.5013
11.505
11.5082
1
1
1
1
1
1
1
1
1
1
1
1
1
1
1
1
1
1
1
1
1
1
1
1
1
1
1
1
1
1
1
1
1
1
1
1
1
1
1
1
1
1
1
1
1
1
1
1
1
1
5.07896
9.98389
10.2279
10.2939
10.3622
10.4216
10.4784
10.532
10.5819
10.6274
10.6698
10.7117
10.7535
10.7956
10.8382
10.8798
10.9185
10.9544
10.9892
11.0225
11.0558
11.0864
11.1173
11.1469
11.1752
11.1999
11.2224
11.2429
11.2622
11.2804
11.2974
11.3132
11.328
11.3422
11.3567
11.3711
11.3844
11.3955
11.404
11.4105
11.4161
11.421
11.4252
11.4294
11.432
11.4345
1
1
1
1
1
1
1
1
1
1
1
1
1
1
1
1
1
1
1
1
1
1
1
1
1
1
1
1
1
1
1
1
1
1
1
1
1
1
1
1
1
1
1
1
1
1
1
1
1
1
4.20427
9.7472
10.1958
10.2757
10.3384
10.3952
10.45
10.5031
10.5543
10.6011
10.6439
10.6844
10.7239
10.7631
10.8024
10.843
10.8799
10.9152
10.9495
10.9816
11.0142
11.0446
11.0745
11.1034
11.1308
11.1547
11.1761
11.1954
11.2133
11.2298
11.2447
11.258
11.2703
11.282
11.2938
11.3056
11.3168
11.3262
11.3335
11.3386
11.3427
11.3452
11.3469
11.3484
11.3492
11.3503
1
1
1
1
1
1
1
1
1
1
1
1
1
1
1
1
1
1
1
1
1
1
1
1
1
1
1
1
1
1
1
1
1
1
1
1
1
1
1
1
1
1
1
1
1
1
1
1
1
1
3.35687
9.39476
10.1958
10.2567
10.3241
10.3838
10.4364
10.4844
10.5304
10.5731
10.6136
10.6533
10.6922
10.7305
10.7684
10.8061
10.8437
10.8749
10.9075
10.9383
10.9696
10.9998
11.0285
11.0566
11.0829
11.1059
11.1261
11.1443
11.1609
11.1755
11.1883
11.1991
11.2086
11.2172
11.2258
11.2344
11.2425
11.2494
11.2544
11.2577
11.2595
11.2595
11.2588
11.2579
11.2572
11.2572
1
1
1
1
1
1
1
1
1
1
1
1
1
1
1
1
1
1
1
1
1
1
1
1
1
1
1
1
1
1
1
1
1
1
1
1
1
1
1
1
1
1
1
1
1
1
1
1
1
1
2.54978
8.86679
10.217
10.2612
10.3176
10.3604
10.4071
10.4576
10.5065
10.5499
10.589
10.6253
10.6603
10.6956
10.7312
10.7669
10.8025
10.8363
10.8648
10.8934
10.9215
10.9511
10.9788
11.0058
11.0307
11.053
11.0721
11.0892
11.1043
11.1172
11.1279
11.1361
11.1426
11.1478
11.1525
11.157
11.1615
11.1653
11.1679
11.1689
11.1677
11.1642
11.1597
11.1549
11.1511
11.149
1
1
1
1
1
1
1
1
1
1
1
1
1
1
1
1
1
1
1
1
1
1
1
1
1
1
1
1
1
1
1
1
1
1
1
1
1
1
1
1
1
1
1
1
1
1
1
1
1
1
1.77878
8.24912
10.3182
10.2441
10.2959
10.3406
10.3899
10.4373
10.4796
10.5199
10.559
10.5963
10.6314
10.6645
10.6966
10.729
10.7612
10.7925
10.8216
10.8473
10.8733
10.8996
10.9257
10.9512
10.9747
10.996
11.0141
11.0299
11.0434
11.0547
11.0633
11.0686
11.0717
11.073
11.0733
11.0731
11.073
11.0726
11.0712
11.0677
11.0619
11.054
11.0455
11.0375
11.0315
11.0283
1
1
1
1
1
1
1
1
1
1
1
1
1
1
1
1
1
1
1
1
1
1
1
1
1
1
1
1
1
1
1
1
1
1
1
1
1
1
1
1
1
1
1
1
1
1
1
1
1
1
1.16602
7.416
10.3786
10.2697
10.2741
10.3039
10.3509
10.4012
10.4488
10.4916
10.5295
10.5647
10.5981
10.6305
10.6618
10.6923
10.7224
10.7509
10.7774
10.801
10.8224
10.846
10.8706
10.893
10.9148
10.9347
10.9516
10.966
10.9779
10.9876
10.9937
10.9961
10.9956
10.9925
10.9878
10.9822
10.9768
10.971
10.9642
10.9557
10.9448
10.9314
10.9164
10.9017
10.8902
10.883
1
1
1
1
1
1
1
1
1
1
1
1
1
1
1
1
1
1
1
1
1
1
1
1
1
1
1
1
1
1
1
1
1
1
1
1
1
1
1
1
1
1
1
1
1
1
1
1
1
1
1.00411
6.46572
10.1583
10.1334
10.2081
10.2632
10.3165
10.3638
10.411
10.4575
10.497
10.5315
10.5639
10.5954
10.6254
10.654
10.6822
10.7091
10.7337
10.7552
10.7739
10.7912
10.8123
10.8333
10.8521
10.8695
10.8848
10.8976
10.9076
10.9154
10.9189
10.9182
10.9136
10.9057
10.8955
10.8839
10.8721
10.8596
10.8454
10.8286
10.8083
10.7852
10.7616
10.7407
10.7255
10.7179
1
1
1
1
1
1
1
1
1
1
1
1
1
1
1
1
1
1
1
1
1
1
1
1
1
1
1
1
1
1
1
1
1
1
1
1
1
1
1
1
1
1
1
1
1
1
1
1
1
1
1
5.31057
9.90531
10.0911
10.1772
10.2325
10.2862
10.3371
10.3828
10.4198
10.4568
10.4928
10.5257
10.5567
10.5862
10.614
10.6407
10.6658
10.6886
10.7084
10.7251
10.7395
10.7544
10.7716
10.7877
10.8018
10.8146
10.825
10.8328
10.8382
10.8387
10.8346
10.8256
10.8127
10.7962
10.778
10.7585
10.7372
10.7133
10.686
10.6554
10.6222
10.5876
10.5527
10.5232
10.5038
1
1
1
1
1
1
1
1
1
1
1
1
1
1
1
1
1
1
1
1
1
1
1
1
1
1
1
1
1
1
1
1
1
1
1
1
1
1
1
1
1
1
1
1
1
1
1
1
1
1
1
4.20518
9.5996
10.0374
10.1233
10.202
10.2572
10.3021
10.3418
10.3812
10.4181
10.4507
10.4829
10.5141
10.5436
10.5711
10.5968
10.6205
10.6419
10.66
10.6749
10.6868
10.6977
10.7104
10.7225
10.7327
10.7419
10.7492
10.7541
10.7563
10.7529
10.7451
10.7311
10.7126
10.6895
10.6636
10.6351
10.6034
10.5674
10.5263
10.4788
10.4245
10.3664
10.3117
10.2684
10.2503
1
1
1
1
1
1
1
1
1
1
1
1
1
1
1
1
1
1
1
1
1
1
1
1
1
1
1
1
1
1
1
1
1
1
1
1
1
1
1
1
1
1
1
1
1
1
1
1
1
1
1
3.13395
9.07692
10.018
10.1231
10.1951
10.2419
10.2801
10.3121
10.3452
10.3768
10.4083
10.4389
10.4681
10.4968
10.5242
10.5496
10.5724
10.5927
10.6097
10.6231
10.633
10.6406
10.6487
10.6571
10.6629
10.6677
10.6713
10.6728
10.6702
10.6626
10.65
10.6308
10.6061
10.5756
10.541
10.502
10.4576
10.406
10.346
10.2766
10.1997
10.118
10.0353
9.94809
9.8749
1
1
1
1
1
1
1
1
1
1
1
1
1
1
1
1
1
1
1
1
1
1
1
1
1
1
1
1
1
1
1
1
1
1
1
1
1
1
1
1
1
1
1
1
1
1
1
1
1
1
1
2.06224
8.3425
10.1663
10.1365
10.1655
10.1997
10.2386
10.2778
10.3119
10.3426
10.37
10.3955
10.4216
10.4481
10.4741
10.4988
10.521
10.5404
10.5566
10.569
10.5775
10.5824
10.586
10.5903
10.5922
10.5924
10.5913
10.5887
10.5807
10.5681
10.5498
10.5246
10.4928
10.4544
10.4099
10.3586
10.2993
10.2293
10.1474
10.051
9.93692
9.79741
9.63248
9.47028
9.35405
1
1
1
1
1
1
1
1
1
1
1
1
1
1
1
1
1
1
1
1
1
1
1
1
1
1
1
1
1
1
1
1
1
1
1
1
1
1
1
1
1
1
1
1
1
1
1
1
1
1
1
1.19393
7.44148
10.2858
10.145
10.1218
10.1536
10.1987
10.24
10.2744
10.3052
10.3329
10.3574
10.3791
10.4009
10.4241
10.4467
10.4674
10.4855
10.5009
10.5123
10.5195
10.5222
10.5228
10.5223
10.5203
10.516
10.5102
10.5018
10.489
10.4707
10.446
10.4138
10.3742
10.3266
10.271
10.2059
10.1296
10.0385
9.92911
9.79501
9.62882
9.42512
9.18187
8.92119
8.75278
1
1
1
1
1
1
1
1
1
1
1
1
1
1
1
1
1
1
1
1
1
1
1
1
1
1
1
1
1
1
1
1
1
1
1
1
1
1
1
1
1
1
1
1
1
1
1
1
1
1
1
1.0043
6.292
9.99409
9.98941
10.0613
10.1089
10.156
10.2006
10.2362
10.267
10.2936
10.3171
10.3379
10.3571
10.376
10.3952
10.4133
10.4292
10.4429
10.453
10.4588
10.4599
10.4575
10.4532
10.4469
10.4379
10.4268
10.4125
10.3942
10.3702
10.3388
10.2991
10.2507
10.193
10.1251
10.045
9.94995
9.83497
9.69458
9.5198
9.29916
9.00393
8.56525
7.73266
5.78392
1
1
1
1
1
1
1
1
1
1
1
1
1
1
1
1
1
1
1
1
1
1
1
1
1
1
1
1
1
1
1
1
1
1
1
1
1
1
1
1
1
1
1
1
1
1
1
1
1
1
1
0.999974
4.87228
9.62699
9.93923
10.0354
10.081
10.1193
10.1596
10.1947
10.2253
10.2512
10.2738
10.2938
10.3117
10.3284
10.3445
10.3597
10.3731
10.3839
10.3924
10.3961
10.3955
10.3905
10.3827
10.3723
10.3586
10.342
10.322
10.2977
10.2676
10.2296
10.1819
10.1241
10.0553
9.97405
9.87777
9.76289
9.62294
9.44961
9.22977
8.93837
8.53222
7.89269
6.93475
4.72864
1
1
1
1
1
1
1
1
1
1
1
1
1
1
1
1
1
1
1
1
1
1
1
1
1
1
1
1
1
1
1
1
1
1
1
1
1
1
1
1
1
1
1
1
1
1
1
1
1
1
1
0.999993
3.55636
9.18923
9.93755
10.0051
10.058
10.0989
10.1224
10.1501
10.179
10.2051
10.2274
10.247
10.2642
10.2795
10.2934
10.3057
10.3162
10.3241
10.3303
10.3315
10.3289
10.3212
10.31
10.2956
10.2776
10.2557
10.2299
10.1993
10.1626
10.1177
10.0621
9.99482
9.91445
9.81959
9.70687
9.57185
9.40681
9.2015
8.93777
8.59124
8.09741
7.43889
6.17676
4.35998
1
1
1
1
1
1
1
1
1
1
1
1
1
1
1
1
1
1
1
1
1
1
1
1
1
1
1
1
1
1
1
1
1
1
1
1
1
1
1
1
1
1
1
1
1
1
1
1
1
1
1
0.999999
2.26444
8.44153
10.0211
10.0014
10.0293
10.0596
10.087
10.1142
10.1396
10.163
10.1834
10.201
10.2165
10.2299
10.2416
10.2516
10.2594
10.2646
10.2676
10.2665
10.2615
10.251
10.2362
10.2175
10.1951
10.1684
10.1369
10.1002
10.0565
10.0043
9.94092
9.86438
9.77266
9.66426
9.53535
9.38107
9.19216
8.95898
8.6582
8.27185
7.72988
6.98779
5.75559
4.25675
1
1
1
1
1
1
1
1
1
1
1
1
1
1
1
1
1
1
1
1
1
1
1
1
1
1
1
1
1
1
1
1
1
1
1
1
1
1
1
1
1
1
1
1
1
1
1
1
1
1
1
1
1.2235
7.46622
10.1557
10.0279
9.99201
10.0116
10.0464
10.074
10.0985
10.12
10.1382
10.1537
10.1671
10.1786
10.1882
10.1961
10.2015
10.2041
10.204
10.2003
10.1928
10.1796
10.161
10.1379
10.1109
10.0797
10.043
10.0003
9.94977
9.88983
9.8181
9.73271
9.63062
9.50994
9.36599
9.19451
8.98477
8.7281
8.40112
7.98118
7.42617
6.64901
5.55384
4.37144
1
1
1
1
1
1
1
1
1
1
1
1
1
1
1
1
1
1
1
1
1
1
1
1
1
1
1
1
1
1
1
1
1
1
1
1
1
1
1
1
1
1
1
1
1
1
1
1
1
1
1
1
1.00542
6.12977
9.79863
9.84941
9.91573
9.95605
9.99817
10.0284
10.0542
10.0754
10.0925
10.1062
10.1178
10.1269
10.1344
10.1402
10.1433
10.1434
10.14
10.1336
10.1236
10.108
10.086
10.0585
10.0264
9.98993
9.94828
9.89982
9.84261
9.77528
9.6955
9.60165
9.49009
9.35886
9.20155
9.01521
8.78871
8.51322
8.16966
7.73246
7.17336
6.42766
5.49411
4.51593
1
1
1
1
1
1
1
1
1
1
1
1
1
1
1
1
1
1
1
1
1
1
1
1
1
1
1
1
1
1
1
1
1
1
1
1
1
1
1
1
1
1
1
1
1
1
1
1
1
1
1
1
0.999957
4.51901
9.39563
9.80895
9.89484
9.93693
9.95903
9.985
10.0096
10.0301
10.0462
10.0584
10.068
10.0747
10.0799
10.0834
10.084
10.0815
10.0752
10.0658
10.053
10.0348
10.0099
9.9786
9.94158
9.89975
9.85301
9.79924
9.73597
9.66176
9.57433
9.47235
9.352
9.21157
9.04382
8.84563
8.60678
8.31836
7.96586
7.52744
6.97411
6.29731
5.49393
4.65298
1
1
1
1
1
1
1
1
1
1
1
1
1
1
1
1
1
1
1
1
1
1
1
1
1
1
1
1
1
1
1
1
1
1
1
1
1
1
1
1
1
1
1
1
1
1
1
1
1
1
1
1
0.999989
2.96141
8.81704
9.85558
9.8852
9.90024
9.92071
9.94446
9.96566
9.98424
9.99905
10.01
10.0177
10.0222
10.025
10.0262
10.0242
10.0192
10.0103
9.99788
9.98196
9.96122
9.93377
9.89924
9.85792
9.81062
9.75802
9.69862
9.62967
9.54931
9.45519
9.34606
9.21836
9.06957
8.89395
8.68708
8.44015
8.14448
7.79117
7.35648
6.82933
6.2191
5.51702
4.79051
1
1
1
1
1
1
1
1
1
1
1
1
1
1
1
1
1
1
1
1
1
1
1
1
1
1
1
1
1
1
1
1
1
1
1
1
1
1
1
1
1
1
1
1
1
1
1
1
1
1
1
1
0.999998
1.63939
7.99844
9.94755
9.84828
9.84362
9.8776
9.9035
9.92319
9.93984
9.95283
9.96218
9.96801
9.9699
9.97034
9.96904
9.96452
9.95677
9.94515
9.92975
9.91062
9.88687
9.85677
9.81923
9.77414
9.72219
9.6639
9.59895
9.52488
9.43936
9.33962
9.22423
9.09025
8.9345
8.75277
8.53985
8.28909
7.9917
7.64233
7.21652
6.72986
6.17751
5.54781
4.91888
1
1
1
1
1
1
1
1
1
1
1
1
1
1
1
1
1
1
1
1
1
1
1
1
1
1
1
1
1
1
1
1
1
1
1
1
1
1
1
1
1
1
1
1
1
1
1
1
1
1
1
1
1
1.04604
6.62196
9.83192
9.77297
9.79207
9.82886
9.85708
9.87705
9.89306
9.90518
9.91367
9.91748
9.91749
9.91564
9.91193
9.90501
9.89445
9.88016
9.86172
9.83942
9.81256
9.77983
9.73967
9.69129
9.63533
9.57197
9.50135
9.42192
9.33159
9.22717
9.10668
8.96757
8.80673
8.62088
8.40448
8.15262
7.85717
7.51713
7.10865
6.65739
6.15051
5.5842
5.04231
1
1
1
1
1
1
1
1
1
1
1
1
1
1
1
1
1
1
1
1
1
1
1
1
1
1
1
1
1
1
1
1
1
1
1
1
1
1
1
1
1
1
1
1
1
1
1
1
1
1
1
1
1
1.00008
4.80294
9.34305
9.67479
9.75894
9.80158
9.81748
9.83247
9.84637
9.85749
9.86469
9.86669
9.86496
9.86083
9.85469
9.84551
9.83236
9.81548
9.7941
9.76868
9.73875
9.7033
9.66055
9.60913
9.54929
9.4814
9.40608
9.32178
9.22725
9.11908
8.99466
8.85142
8.68689
8.49847
8.28113
8.03036
7.73937
7.41341
7.02224
6.60417
6.13736
5.63021
5.14778
1
1
1
1
1
1
1
1
1
1
1
1
1
1
1
1
1
1
1
1
1
1
1
1
1
1
1
1
1
1
1
1
1
1
1
1
1
1
1
1
1
1
1
1
1
1
1
1
1
1
1
1
1
0.999999
3.01735
8.82732
9.74789
9.75866
9.76225
9.77471
9.79015
9.80225
9.81194
9.81722
9.81753
9.81381
9.80723
9.7984
9.78676
9.77109
9.75153
9.72735
9.69871
9.6656
9.62724
9.58197
9.52802
9.46514
9.39334
9.31378
9.22527
9.12663
9.01483
8.88727
8.74106
8.57424
8.38476
8.16851
7.92106
7.6382
7.32277
6.9518
6.57119
6.13533
5.67752
5.23065
1
1
1
1
1
1
1
1
1
1
1
1
1
1
1
1
1
1
1
1
1
1
1
1
1
1
1
1
1
1
1
1
1
1
1
1
1
1
1
1
1
1
1
1
1
1
1
1
1
1
1
1
1
1
1.55516
7.92929
9.87525
9.73196
9.70145
9.72265
9.74234
9.75471
9.76373
9.76802
9.76724
9.76193
9.75323
9.74186
9.72778
9.70986
9.68775
9.6611
9.62959
9.59348
9.55225
9.50455
9.44842
9.3831
9.30813
9.2244
9.13193
9.02994
8.91508
8.78518
8.63713
8.4693
8.27984
8.06584
7.8236
7.55104
7.24232
6.89794
6.54781
6.13712
5.72239
5.30092
1
1
1
1
1
1
1
1
1
1
1
1
1
1
1
1
1
1
1
1
1
1
1
1
1
1
1
1
1
1
1
1
1
1
1
1
1
1
1
1
1
1
1
1
1
1
1
1
1
1
1
1
1
1
1.0321
6.41328
9.58383
9.58886
9.63541
9.66934
9.69207
9.70592
9.71512
9.71918
9.71771
9.71107
9.7004
9.68647
9.66975
9.64937
9.6248
9.59582
9.5617
9.52272
9.47844
9.42802
9.36974
9.30249
9.22532
9.13855
9.04247
8.93694
8.81948
8.68793
8.53875
8.37108
8.1829
7.97186
7.73666
7.47271
7.17325
6.86062
6.52511
6.13602
5.76404
5.37114
1
1
1
1
1
1
1
1
1
1
1
1
1
1
1
1
1
1
1
1
1
1
1
1
1
1
1
1
1
1
1
1
1
1
1
1
1
1
1
1
1
1
1
1
1
1
1
1
1
1
1
1
1
1
0.99998
4.43413
9.13356
9.53109
9.60877
9.64268
9.65546
9.6621
9.66794
9.67026
9.66757
9.65967
9.64726
9.63108
9.61183
9.58904
9.56217
9.53104
9.49463
9.45312
9.40605
9.353
9.29267
9.22391
9.14528
9.05649
8.95745
8.84827
8.72791
8.59515
8.44615
8.27978
8.09379
7.88631
7.65823
7.40108
7.12132
6.8291
6.49481
6.14132
5.80757
5.43541
1
1
1
1
1
1
1
1
1
1
1
1
1
1
1
1
1
1
1
1
1
1
1
1
1
1
1
1
1
1
1
1
1
1
1
1
1
1
1
1
1
1
1
1
1
1
1
1
1
1
1
1
1
1
0.99999
2.5076
8.48888
9.63294
9.60777
9.60682
9.61549
9.62113
9.62372
9.62332
9.61867
9.60917
9.59494
9.57656
9.55476
9.52943
9.50024
9.46702
9.42857
9.38484
9.33524
9.27961
9.21697
9.14656
9.0668
8.97684
8.87595
8.76411
8.64121
8.50679
8.35826
8.19429
8.01217
7.80779
7.58706
7.33838
7.0763
6.79108
6.47354
6.16232
5.84249
5.48597
1
1
1
1
1
1
1
1
1
1
1
1
1
1
1
1
1
1
1
1
1
1
1
1
1
1
1
1
1
1
1
1
1
1
1
1
1
1
1
1
1
1
1
1
1
1
1
1
1
1
1
1
1
1
0.999998
1.20307
7.23568
9.709
9.58273
9.5543
9.56504
9.5737
9.57559
9.57413
9.56832
9.5578
9.54232
9.52221
9.49829
9.47056
9.43916
9.4039
9.36353
9.31785
9.26603
9.20807
9.14329
9.07128
8.99058
8.90001
8.7982
8.68483
8.56009
8.42415
8.27567
8.1139
7.93628
7.73603
7.52368
7.28121
7.03152
6.7623
6.46621
6.17584
5.85935
5.53493
1
1
1
1
1
1
1
1
1
1
1
1
1
1
1
1
1
1
1
1
1
1
1
1
1
1
1
1
1
1
1
1
1
1
1
1
1
1
1
1
1
1
1
1
1
1
1
1
1
1
1
1
1
1
1
1.00361
5.39283
9.22926
9.42222
9.49904
9.52634
9.52935
9.52832
9.52498
9.51774
9.50613
9.48953
9.46798
9.44221
9.41229
9.37872
9.34144
9.29924
9.25188
9.19825
9.13829
9.07154
8.99786
8.91599
8.82487
8.72278
8.60915
8.48384
8.34722
8.19889
8.03869
7.86452
7.67109
7.46528
7.22947
6.99641
6.73745
6.45527
6.17958
5.88057
5.5918
1
1
1
1
1
1
1
1
1
1
1
1
1
1
1
1
1
1
1
1
1
1
1
1
1
1
1
1
1
1
1
1
1
1
1
1
1
1
1
1
1
1
1
1
1
1
1
1
1
1
1
1
1
1
1
0.999961
3.19938
8.72219
9.49111
9.48971
9.49083
9.49263
9.48839
9.481
9.47084
9.45707
9.43877
9.41558
9.3879
9.3558
9.32
9.28058
9.23651
9.18753
9.13237
9.07074
9.00225
8.92696
8.84384
8.75217
8.65014
8.53711
8.41237
8.27603
8.12837
7.96902
7.7975
7.61045
7.40889
7.18792
6.96634
6.7071
6.44668
6.18997
5.91034
5.6375
1
1
1
1
1
1
1
1
1
1
1
1
1
1
1
1
1
1
1
1
1
1
1
1
1
1
1
1
1
1
1
1
1
1
1
1
1
1
1
1
1
1
1
1
1
1
1
1
1
1
1
1
1
1
1
0.99999
1.46293
7.73274
9.61929
9.47543
9.43785
9.43989
9.43729
9.43018
9.42
9.40553
9.38643
9.36236
9.33334
9.29969
9.26202
9.22061
9.17473
9.12418
9.0677
9.00482
8.93498
8.85824
8.77383
8.68153
8.57962
8.46764
8.34442
8.20956
8.06385
7.90524
7.736
7.55321
7.3584
7.1521
6.93267
6.6834
6.4493
6.20109
5.93317
5.66953
1
1
1
1
1
1
1
1
1
1
1
1
1
1
1
1
1
1
1
1
1
1
1
1
1
1
1
1
1
1
1
1
1
1
1
1
1
1
1
1
1
1
1
1
1
1
1
1
1
1
1
1
1
1
1
0.999998
1.02049
5.96957
9.22404
9.32672
9.38299
9.39654
9.38736
9.37984
9.36931
9.35438
9.33489
9.31017
9.28015
9.2453
9.20597
9.16269
9.11504
9.06287
9.00511
8.94125
8.8704
8.79248
8.70684
8.61379
8.51197
8.40112
8.27975
8.1471
8.00442
7.84657
7.68006
7.50073
7.31258
7.11458
6.89998
6.6732
6.45034
6.2015
5.95148
5.70187
1
1
1
1
1
1
1
1
1
1
1
1
1
1
1
1
1
1
1
1
1
1
1
1
1
1
1
1
1
1
1
1
1
1
1
1
1
1
1
1
1
1
1
1
1
1
1
1
1
1
1
1
1
1
1
1
0.999915
3.61043
8.75671
9.34926
9.35777
9.35449
9.34972
9.34033
9.32554
9.30716
9.28558
9.2593
9.22804
9.19209
9.15129
9.10628
9.0569
9.00307
8.94398
8.87922
8.80764
8.72895
8.6425
8.54884
8.44711
8.3372
8.21777
8.08781
7.94875
7.79242
7.63006
7.45337
7.26987
7.08019
6.87558
6.66308
6.44102
6.2054
5.97816
5.73863
1
1
1
1
1
1
1
1
1
1
1
1
1
1
1
1
1
1
1
1
1
1
1
1
1
1
1
1
1
1
1
1
1
1
1
1
1
1
1
1
1
1
1
1
1
1
1
1
1
1
1
1
1
1
1
1
0.999977
1.64751
7.91252
9.4793
9.34557
9.30993
9.29937
9.2901
9.27477
9.25615
9.23407
9.20755
9.17588
9.13947
9.09786
9.0516
9.00084
8.94555
8.88516
8.81952
8.7473
8.66817
8.58135
8.48736
8.38578
8.27642
8.15856
8.03091
7.89481
7.74176
7.58418
7.4097
7.23346
7.0516
6.85068
6.64566
6.43319
6.21953
6.00262
5.76497
1
1
1
1
1
1
1
1
1
1
1
1
1
1
1
1
1
1
1
1
1
1
1
1
1
1
1
1
1
1
1
1
1
1
1
1
1
1
1
1
1
1
1
1
1
1
1
1
1
1
1
1
1
1
1
1
0.999996
1.03841
6.13592
9.13613
9.21168
9.24871
9.25535
9.24348
9.22552
9.20607
9.18324
9.1563
9.12459
9.08778
9.04565
8.99843
8.94646
8.88983
8.82812
8.76146
8.68865
8.60928
8.52264
8.4288
8.32764
8.21886
8.10252
7.9765
7.84297
7.69528
7.54146
7.37142
7.20379
7.02301
6.82628
6.6332
6.43356
6.23062
6.01707
5.78579
1
1
1
1
1
1
1
1
1
1
1
1
1
1
1
1
1
1
1
1
1
1
1
1
1
1
1
1
1
1
1
1
1
1
1
1
1
1
1
1
1
1
1
1
1
1
1
1
1
1
1
1
1
1
1
1
1
0.999971
3.62752
8.65989
9.22369
9.22164
9.20873
9.20308
9.1867
9.16441
9.13827
9.10885
9.07582
9.03793
8.99506
8.94703
8.89402
8.83627
8.77345
8.70579
8.6323
8.55279
8.46636
8.37304
8.27259
8.1646
8.04956
7.92418
7.79284
7.65083
7.49991
7.3379
7.17564
6.99426
6.80827
6.62741
6.43383
6.23187
6.02418
5.80881
1
1
1
1
1
1
1
1
1
1
1
1
1
1
1
1
1
1
1
1
1
1
1
1
1
1
1
1
1
1
1
1
1
1
1
1
1
1
1
1
1
1
1
1
1
1
1
1
1
1
1
1
1
1
1
1
1
0.999987
1.56746
7.77263
9.36636
9.21726
9.18057
9.15517
9.13855
9.11508
9.08874
9.05923
9.0259
8.98778
8.94455
8.89614
8.84248
8.78386
8.72023
8.65187
8.57784
8.49817
8.41235
8.31963
8.22003
8.11377
7.99993
7.87517
7.74617
7.60849
7.46142
7.30809
7.1479
6.97085
6.79693
6.62217
6.42908
6.23192
6.03831
5.83653
1
1
1
1
1
1
1
1
1
1
1
1
1
1
1
1
1
1
1
1
1
1
1
1
1
1
1
1
1
1
1
1
1
1
1
1
1
1
1
1
1
1
1
1
1
1
1
1
1
1
1
1
1
1
1
1
1
0.999998
1.02895
5.89193
8.98097
9.05727
9.09445
9.11002
9.09339
9.06748
9.04092
9.01123
8.97765
8.93919
8.89567
8.84696
8.79287
8.73358
8.6693
8.60036
8.52589
8.4461
8.36031
8.26853
8.16992
8.06492
7.95189
7.82915
7.70259
7.56804
7.42531
7.27754
7.11999
6.95255
6.78705
6.61254
6.42189
6.2382
6.05662
5.86021
1
1
1
1
1
1
1
1
1
1
1
1
1
1
1
1
1
1
1
1
1
1
1
1
1
1
1
1
1
1
1
1
1
1
1
1
1
1
1
1
1
1
1
1
1
1
1
1
1
1
1
1
1
1
1
1
1
1
0.999933
3.26269
8.4407
9.10728
9.09647
9.07146
9.05075
9.02878
9.00186
8.9693
8.93316
8.89283
8.8482
8.79883
8.74427
8.68465
8.61999
8.55077
8.47614
8.39659
8.31098
8.21965
8.12249
8.01842
7.90699
7.78725
7.66315
7.5312
7.39197
7.2477
7.09595
6.93767
6.77525
6.6023
6.42064
6.24906
6.07271
5.87956
1
1
1
1
1
1
1
1
1
1
1
1
1
1
1
1
1
1
1
1
1
1
1
1
1
1
1
1
1
1
1
1
1
1
1
1
1
1
1
1
1
1
1
1
1
1
1
1
1
1
1
1
1
1
1
1
1
1
0.99998
1.35239
7.32307
9.23663
9.0864
9.03235
9.00066
8.9838
8.95611
8.92276
8.88645
8.84587
8.80116
8.7518
8.69741
8.6379
8.57309
8.50366
8.42882
8.34927
8.2639
8.17293
8.07619
7.97362
7.86447
7.7476
7.62612
7.49638
7.35986
7.21979
7.07458
6.92034
6.76001
6.59424
6.42469
6.25856
6.08185
5.89529
1
1
1
1
1
1
1
1
1
1
1
1
1
1
1
1
1
1
1
1
1
1
1
1
1
1
1
1
1
1
1
1
1
1
1
1
1
1
1
1
1
1
1
1
1
1
1
1
1
1
1
1
1
1
1
1
1
1
0.999997
1.01088
5.21926
8.77279
8.90126
8.94576
8.96122
8.94436
8.91281
8.87843
8.84149
8.80058
8.75545
8.70609
8.65185
8.59269
8.52818
8.45892
8.38427
8.30481
8.2199
8.12947
8.03344
7.9318
7.8245
7.71058
7.5917
7.4642
7.33095
7.19559
7.05395
6.90149
6.7468
6.5904
6.42913
6.2637
6.08816
5.9124
1
1
1
1
1
1
1
1
1
1
1
1
1
1
1
1
1
1
1
1
1
1
1
1
1
1
1
1
1
1
1
1
1
1
1
1
1
1
1
1
1
1
1
1
1
1
1
1
1
1
1
1
1
1
1
1
1
1
1
0.999938
2.56623
8.16142
8.95487
8.95576
8.947
8.91011
8.87317
8.83873
8.80177
8.75957
8.71347
8.6634
8.60897
8.54979
8.48535
8.41604
8.34145
8.26205
8.17754
8.08762
7.99251
7.89186
7.78578
7.67461
7.55793
7.43326
7.30442
7.1727
7.03199
6.88352
6.73696
6.58651
6.42785
6.26332
6.09634
5.93311
1
1
1
1
1
1
1
1
1
1
1
1
1
1
1
1
1
1
1
1
1
1
1
1
1
1
1
1
1
1
1
1
1
1
1
1
1
1
1
1
1
1
1
1
1
1
1
1
1
1
1
1
1
1
1
1
1
1
1
0.999984
1.18365
6.55306
8.96922
8.93033
8.90449
8.86081
8.82583
8.79543
8.75893
8.71662
8.67026
8.62035
8.56629
8.50766
8.44393
8.37528
8.30131
8.22236
8.13831
8.04895
7.95463
7.85505
7.75014
7.64088
7.52598
7.40464
7.28004
7.15058
7.01155
6.86947
6.72863
6.58022
6.42379
6.26478
6.10933
5.95431
1
1
1
1
1
1
1
1
1
1
1
1
1
1
1
1
1
1
1
1
1
1
1
1
1
1
1
1
1
1
1
1
1
1
1
1
1
1
1
1
1
1
1
1
1
1
1
1
1
1
1
1
1
1
1
1
1
1
1
0.999997
1.00244
3.91005
8.44694
8.84988
8.8367
8.80075
8.78758
8.76342
8.72458
8.67967
8.63198
8.58118
8.52661
8.46753
8.40385
8.33539
8.26183
8.18335
8.09993
8.01141
7.91812
7.81975
7.71635
7.60862
7.49547
7.37724
7.25567
7.12803
6.99325
6.85751
6.71855
6.57125
6.42031
6.27069
6.12267
5.96853
1
1
1
1
1
1
1
1
1
1
1
1
1
1
1
1
1
1
1
1
1