/*--------------------------------*- C++ -*----------------------------------*\
  =========                 |
  \\      /  F ield         | OpenFOAM: The Open Source CFD Toolbox
   \\    /   O peration     | Website:  https://openfoam.org
    \\  /    A nd           | Version:  7
     \\/     M anipulation  |
\*---------------------------------------------------------------------------*/
FoamFile
{
    version     2.0;
    format      ascii;
    class       volScalarField;
    location    "3.4";
    object      T;
}
// * * * * * * * * * * * * * * * * * * * * * * * * * * * * * * * * * * * * * //

dimensions      [0 0 0 1 0 0 0];

internalField   nonuniform List<scalar> 
64512
(
1
1
1
1
1
1
1
1
1
1
1
1
1
1
1
1
1
1
1
1
1
1
1
1
1
1
1
1
1
1
1
1
1
1
1
1
1
1
1
1
1
1
1
1
1
1
1
1
1
2.27419
2.6916
2.69485
2.6971
2.69993
2.70275
2.70615
2.7104
2.71548
2.72105
2.72665
2.73191
2.73651
2.74022
2.74293
2.74484
2.7464
2.74815
2.7507
2.75437
2.75905
2.76403
2.76829
2.77112
2.77265
2.77361
2.77472
2.77659
2.77952
2.78324
2.78702
2.79021
2.79263
2.79444
2.79591
2.79723
2.79847
2.79964
2.80076
2.80193
2.80325
2.80484
2.80671
2.8087
2.81047
2.81169
2.81233
1
1
1
1
1
1
1
1
1
1
1
1
1
1
1
1
1
1
1
1
1
1
1
1
1
1
1
1
1
1
1
1
1
1
1
1
1
1
1
1
1
1
1
1
1
1
1
1
1
2.26884
2.69129
2.69487
2.6969
2.69977
2.70263
2.7061
2.7104
2.71551
2.72108
2.72668
2.73192
2.7365
2.74018
2.74285
2.74474
2.74628
2.74803
2.75058
2.75427
2.75894
2.76391
2.76815
2.77097
2.77251
2.77349
2.77463
2.77652
2.77947
2.78318
2.78692
2.79006
2.79244
2.79423
2.7957
2.79703
2.79827
2.79944
2.80055
2.80171
2.80303
2.80462
2.80648
2.80847
2.81024
2.81146
2.81209
1
1
1
1
1
1
1
1
1
1
1
1
1
1
1
1
1
1
1
1
1
1
1
1
1
1
1
1
1
1
1
1
1
1
1
1
1
1
1
1
1
1
1
1
1
1
1
1
1
2.25711
2.69164
2.69447
2.69631
2.69927
2.70228
2.70594
2.71039
2.71557
2.72116
2.72673
2.73194
2.73648
2.74009
2.74269
2.74452
2.74603
2.74778
2.75034
2.75406
2.75875
2.76373
2.76794
2.77074
2.77227
2.77326
2.77443
2.77636
2.77935
2.78306
2.78676
2.78984
2.79215
2.7939
2.79537
2.79671
2.79796
2.79912
2.80022
2.80136
2.80267
2.80425
2.80612
2.80811
2.80988
2.8111
2.81173
1
1
1
1
1
1
1
1
1
1
1
1
1
1
1
1
1
1
1
1
1
1
1
1
1
1
1
1
1
1
1
1
1
1
1
1
1
1
1
1
1
1
1
1
1
1
1
1
1
2.23979
2.69163
2.69387
2.69554
2.69863
2.70186
2.7058
2.71043
2.71571
2.72132
2.72688
2.73204
2.7365
2.74
2.74246
2.74418
2.74563
2.74736
2.74994
2.75371
2.75843
2.76344
2.76764
2.77043
2.77194
2.77292
2.77412
2.7761
2.77913
2.78285
2.78649
2.78947
2.7917
2.79341
2.79488
2.79624
2.79751
2.79866
2.79974
2.80085
2.80214
2.80372
2.80559
2.80757
2.80933
2.81055
2.81117
1
1
1
1
1
1
1
1
1
1
1
1
1
1
1
1
1
1
1
1
1
1
1
1
1
1
1
1
1
1
1
1
1
1
1
1
1
1
1
1
1
1
1
1
1
1
1
1
1
2.21658
2.69109
2.69301
2.69465
2.69793
2.70139
2.70561
2.71043
2.7158
2.72148
2.72706
2.73219
2.73656
2.73992
2.74219
2.74375
2.7451
2.74678
2.74936
2.75319
2.758
2.76309
2.76731
2.77008
2.77155
2.7725
2.77369
2.7757
2.77877
2.78249
2.78609
2.78899
2.79112
2.79278
2.79425
2.79565
2.79694
2.79809
2.79913
2.80021
2.80148
2.80305
2.80491
2.80688
2.80862
2.80982
2.81044
1
1
1
1
1
1
1
1
1
1
1
1
1
1
1
1
1
1
1
1
1
1
1
1
1
1
1
1
1
1
1
1
1
1
1
1
1
1
1
1
1
1
1
1
1
1
1
1
1
2.18687
2.6897
2.69206
2.69383
2.69723
2.70085
2.70526
2.71025
2.71575
2.72153
2.72719
2.73234
2.73665
2.73985
2.7419
2.74323
2.74443
2.74602
2.74858
2.7525
2.75744
2.76265
2.76694
2.7697
2.77111
2.77199
2.77313
2.77513
2.77823
2.78197
2.78553
2.78835
2.79039
2.79199
2.79346
2.79489
2.79621
2.79735
2.79837
2.79941
2.80066
2.80223
2.80408
2.80604
2.80777
2.80895
2.80957
1
1
1
1
1
1
1
1
1
1
1
1
1
1
1
1
1
1
1
1
1
1
1
1
1
1
1
1
1
1
1
1
1
1
1
1
1
1
1
1
1
1
1
1
1
1
1
1
1
2.15014
2.68711
2.69139
2.69323
2.69654
2.70013
2.70458
2.70967
2.71533
2.72133
2.72717
2.73242
2.73672
2.73978
2.74159
2.74264
2.74363
2.74506
2.74756
2.75156
2.75669
2.7621
2.76651
2.76927
2.77061
2.77138
2.77242
2.77437
2.77747
2.78124
2.7848
2.78755
2.78951
2.79105
2.7925
2.79396
2.79531
2.79646
2.79745
2.79847
2.7997
2.80126
2.80311
2.80506
2.80678
2.80796
2.80857
1
1
1
1
1
1
1
1
1
1
1
1
1
1
1
1
1
1
1
1
1
1
1
1
1
1
1
1
1
1
1
1
1
1
1
1
1
1
1
1
1
1
1
1
1
1
1
1
1
2.10605
2.6827
2.69134
2.69289
2.69577
2.69912
2.70343
2.70851
2.71431
2.7206
2.72679
2.73229
2.73669
2.73969
2.74129
2.74204
2.74277
2.74399
2.74637
2.75043
2.75577
2.76144
2.76604
2.76882
2.77007
2.77067
2.77157
2.77341
2.7765
2.7803
2.78388
2.78659
2.78847
2.78995
2.79138
2.79285
2.79423
2.79539
2.79637
2.79736
2.79856
2.80011
2.80195
2.80389
2.80559
2.80676
2.80738
1
1
1
1
1
1
1
1
1
1
1
1
1
1
1
1
1
1
1
1
1
1
1
1
1
1
1
1
1
1
1
1
1
1
1
1
1
1
1
1
1
1
1
1
1
1
1
1
1
2.05457
2.67555
2.69209
2.69279
2.69495
2.69783
2.70181
2.70672
2.71258
2.71913
2.72576
2.7317
2.7364
2.73949
2.74095
2.74142
2.74186
2.74282
2.74501
2.74906
2.75461
2.76057
2.76544
2.76831
2.76946
2.76988
2.7706
2.7723
2.77536
2.77922
2.78285
2.78555
2.78735
2.78875
2.79013
2.7916
2.79299
2.79416
2.79513
2.7961
2.79727
2.79879
2.80062
2.80254
2.80423
2.80539
2.80601
1
1
1
1
1
1
1
1
1
1
1
1
1
1
1
1
1
1
1
1
1
1
1
1
1
1
1
1
1
1
1
1
1
1
1
1
1
1
1
1
1
1
1
1
1
1
1
1
1
1.99531
2.66496
2.69294
2.69271
2.69421
2.69653
2.69995
2.70448
2.71015
2.71682
2.72389
2.73042
2.73564
2.73905
2.74054
2.74081
2.74098
2.74164
2.74354
2.74747
2.75315
2.75938
2.76458
2.7676
2.7687
2.76891
2.76942
2.77095
2.77396
2.77788
2.78159
2.78431
2.78606
2.78737
2.78869
2.79013
2.79154
2.79273
2.79371
2.79467
2.79582
2.79732
2.79913
2.80103
2.80272
2.80388
2.8045
1
1
1
1
1
1
1
1
1
1
1
1
1
1
1
1
1
1
1
1
1
1
1
1
1
1
1
1
1
1
1
1
1
1
1
1
1
1
1
1
1
1
1
1
1
1
1
1
1
1.92686
2.65022
2.69299
2.69242
2.69366
2.69543
2.69814
2.70203
2.70728
2.71383
2.72119
2.72833
2.73428
2.7383
2.74008
2.74028
2.74023
2.7406
2.74214
2.74578
2.75143
2.75786
2.76342
2.76665
2.76775
2.76778
2.76809
2.76941
2.77233
2.77629
2.78011
2.78289
2.7846
2.78582
2.78705
2.78845
2.78987
2.7911
2.7921
2.79306
2.79419
2.79565
2.79743
2.79932
2.80102
2.80217
2.8028
1
1
1
1
1
1
1
1
1
1
1
1
1
1
1
1
1
1
1
1
1
1
1
1
1
1
1
1
1
1
1
1
1
1
1
1
1
1
1
1
1
1
1
1
1
1
1
1
1
1.84778
2.63097
2.69192
2.69147
2.69285
2.69437
2.69648
2.69958
2.70416
2.71031
2.71767
2.72528
2.73201
2.73688
2.73927
2.73963
2.73947
2.73963
2.74078
2.74399
2.74942
2.75596
2.76187
2.76542
2.76664
2.76659
2.76672
2.7678
2.77057
2.77453
2.77844
2.78128
2.78297
2.7841
2.78522
2.78656
2.78798
2.78926
2.7903
2.79125
2.79235
2.79378
2.79554
2.79742
2.79912
2.80028
2.8009
1
1
1
1
1
1
1
1
1
1
1
1
1
1
1
1
1
1
1
1
1
1
1
1
1
1
1
1
1
1
1
1
1
1
1
1
1
1
1
1
1
1
1
1
1
1
1
1
1
1.75753
2.60744
2.68965
2.68952
2.69139
2.69304
2.69492
2.6974
2.70115
2.70659
2.7136
2.72138
2.7287
2.73452
2.73787
2.73876
2.73864
2.7387
2.73948
2.74213
2.74713
2.75359
2.75979
2.76377
2.76529
2.76525
2.76528
2.76613
2.76869
2.7726
2.77656
2.77947
2.78115
2.78219
2.7832
2.78446
2.78588
2.7872
2.78827
2.78922
2.79028
2.79167
2.7934
2.79528
2.797
2.79816
2.79878
1
1
1
1
1
1
1
1
1
1
1
1
1
1
1
1
1
1
1
1
1
1
1
1
1
1
1
1
1
1
1
1
1
1
1
1
1
1
1
1
1
1
1
1
1
1
1
1
1
1.6537
2.57835
2.6868
2.687
2.68937
2.69142
2.69343
2.69557
2.69859
2.70315
2.70948
2.71702
2.72461
2.73116
2.73558
2.73733
2.73748
2.73754
2.73808
2.74015
2.74455
2.75074
2.75713
2.76162
2.76361
2.76374
2.76371
2.76437
2.76668
2.77046
2.77444
2.77743
2.77912
2.7801
2.78102
2.7822
2.78359
2.78493
2.78602
2.78696
2.78798
2.78932
2.79102
2.7929
2.79463
2.7958
2.79642
1
1
1
1
1
1
1
1
1
1
1
1
1
1
1
1
1
1
1
1
1
1
1
1
1
1
1
1
1
1
1
1
1
1
1
1
1
1
1
1
1
1
1
1
1
1
1
1
1
1.53442
2.54044
2.68288
2.68342
2.68674
2.68927
2.69164
2.69383
2.69643
2.70013
2.70549
2.71241
2.71996
2.72697
2.73235
2.73521
2.736
2.73623
2.73665
2.7382
2.74188
2.74756
2.75394
2.75889
2.76149
2.76196
2.76196
2.7625
2.76453
2.7681
2.77205
2.77512
2.77686
2.77781
2.77864
2.77973
2.78109
2.78244
2.78354
2.78445
2.78542
2.78671
2.78839
2.79027
2.79201
2.79318
2.7938
1
1
1
1
1
1
1
1
1
1
1
1
1
1
1
1
1
1
1
1
1
1
1
1
1
1
1
1
1
1
1
1
1
1
1
1
1
1
1
1
1
1
1
1
1
1
1
1
1
1.39735
2.48973
2.67782
2.67975
2.68392
2.68677
2.68956
2.692
2.69446
2.69751
2.70183
2.70783
2.71497
2.72213
2.72826
2.73225
2.73399
2.73458
2.73506
2.73621
2.73915
2.74413
2.75027
2.75559
2.75886
2.75986
2.76003
2.76051
2.76226
2.76553
2.76937
2.77248
2.77432
2.77527
2.77605
2.77708
2.7784
2.77973
2.78084
2.78172
2.78263
2.78385
2.78548
2.78734
2.78907
2.79024
2.79086
1
1
1
1
1
1
1
1
1
1
1
1
1
1
1
1
1
1
1
1
1
1
1
1
1
1
1
1
1
1
1
1
1
1
1
1
1
1
1
1
1
1
1
1
1
1
1
1
1
1.25181
2.42898
2.67661
2.67562
2.68013
2.68372
2.68722
2.69022
2.69287
2.69557
2.69898
2.70376
2.71
2.71687
2.72338
2.72835
2.73118
2.73241
2.73311
2.73406
2.73637
2.74057
2.74628
2.75182
2.75573
2.75738
2.75784
2.75832
2.75979
2.7627
2.76635
2.7695
2.77146
2.77249
2.77325
2.77421
2.77546
2.77677
2.77785
2.7787
2.77954
2.78068
2.78226
2.7841
2.78582
2.787
2.78761
1
1
1
1
1
1
1
1
1
1
1
1
1
1
1
1
1
1
1
1
1
1
1
1
1
1
1
1
1
1
1
1
1
1
1
1
1
1
1
1
1
1
1
1
1
1
1
1
1
1.10991
2.36325
2.67668
2.67521
2.67825
2.68188
2.68557
2.6889
2.69176
2.69438
2.69726
2.70097
2.70586
2.7118
2.71812
2.72371
2.72756
2.72962
2.73073
2.73165
2.73349
2.73694
2.74205
2.74763
2.75207
2.75445
2.75531
2.75588
2.75713
2.75965
2.76305
2.7662
2.76831
2.76944
2.77021
2.77111
2.77228
2.77353
2.77459
2.7754
2.77617
2.77722
2.77873
2.78052
2.78219
2.78334
2.78393
1
1
1
1
1
1
1
1
1
1
1
1
1
1
1
1
1
1
1
1
1
1
1
1
1
1
1
1
1
1
1
1
1
1
1
1
1
1
1
1
1
1
1
1
1
1
1
1
1
1.00491
2.29576
2.67581
2.67511
2.67724
2.68081
2.68478
2.68869
2.69198
2.69461
2.69691
2.69951
2.70299
2.70765
2.71318
2.71877
2.7233
2.72619
2.72783
2.72891
2.73046
2.73326
2.73768
2.74308
2.7479
2.751
2.75237
2.75311
2.75421
2.75638
2.75948
2.76259
2.76484
2.76609
2.76687
2.7677
2.76878
2.76995
2.77096
2.77172
2.77244
2.77341
2.77483
2.77655
2.77818
2.77931
2.77987
1
1
1
1
1
1
1
1
1
1
1
1
1
1
1
1
1
1
1
1
1
1
1
1
1
1
1
1
1
1
1
1
1
1
1
1
1
1
1
1
1
1
1
1
1
1
1
1
1
1.00002
2.20753
2.67499
2.67694
2.67923
2.68255
2.68579
2.68902
2.69192
2.6944
2.69659
2.69881
2.70144
2.7049
2.70931
2.7143
2.71896
2.7224
2.72457
2.72593
2.72731
2.7296
2.73329
2.73829
2.74327
2.747
2.74894
2.74994
2.751
2.75286
2.75566
2.75867
2.76103
2.76242
2.76323
2.76399
2.76495
2.76603
2.76697
2.76768
2.76834
2.76925
2.77055
2.77211
2.77367
2.77474
2.77525
1
1
1
1
1
1
1
1
1
1
1
1
1
1
1
1
1
1
1
1
1
1
1
1
1
1
1
1
1
1
1
1
1
1
1
1
1
1
1
1
1
1
1
1
1
1
1
1
1
1
2.0902
2.66232
2.67719
2.68032
2.68419
2.68756
2.69059
2.69313
2.69528
2.69717
2.69906
2.70123
2.70384
2.70715
2.71113
2.71528
2.71879
2.72123
2.72283
2.72413
2.72602
2.72902
2.73341
2.73831
2.74246
2.74497
2.74632
2.74742
2.74907
2.75158
2.75446
2.75688
2.75839
2.75923
2.75992
2.76074
2.76167
2.76251
2.76316
2.76374
2.7646
2.76577
2.76717
2.76865
2.76967
2.77013
1
1
1
1
1
1
1
1
1
1
1
1
1
1
1
1
1
1
1
1
1
1
1
1
1
1
1
1
1
1
1
1
1
1
1
1
1
1
1
1
1
1
1
1
1
1
1
1
1
1
1.94466
2.63215
2.67337
2.6794
2.68371
2.68722
2.69022
2.69285
2.69525
2.69742
2.6994
2.70141
2.70366
2.70625
2.70927
2.71269
2.71573
2.71814
2.71984
2.72104
2.72258
2.72495
2.72863
2.73317
2.73747
2.74046
2.7422
2.74343
2.74496
2.74721
2.74993
2.75237
2.75399
2.75486
2.75546
2.75612
2.75689
2.75761
2.75819
2.75872
2.75945
2.76043
2.76166
2.76298
2.76389
2.76427
1
1
1
1
1
1
1
1
1
1
1
1
1
1
1
1
1
1
1
1
1
1
1
1
1
1
1
1
1
1
1
1
1
1
1
1
1
1
1
1
1
1
1
1
1
1
1
1
1
1
1.78027
2.58572
2.66281
2.6732
2.68034
2.68509
2.68861
2.69164
2.69442
2.69677
2.69892
2.70109
2.70336
2.70575
2.70833
2.71105
2.71374
2.71564
2.71718
2.71825
2.71946
2.72127
2.72415
2.7281
2.73224
2.73551
2.7376
2.739
2.74047
2.74251
2.74505
2.74747
2.74917
2.75007
2.75057
2.75105
2.75161
2.75216
2.75261
2.75305
2.7536
2.75434
2.75542
2.75661
2.75743
2.75774
1
1
1
1
1
1
1
1
1
1
1
1
1
1
1
1
1
1
1
1
1
1
1
1
1
1
1
1
1
1
1
1
1
1
1
1
1
1
1
1
1
1
1
1
1
1
1
1
1
1
1.58551
2.51699
2.64882
2.66219
2.67147
2.67726
2.68221
2.68683
2.69099
2.69449
2.69751
2.70012
2.70252
2.70489
2.70726
2.70964
2.71192
2.71382
2.71497
2.71584
2.71663
2.71797
2.72009
2.72326
2.72695
2.73025
2.73256
2.73413
2.73556
2.73743
2.73982
2.74217
2.74392
2.74484
2.74522
2.74548
2.7458
2.74616
2.74649
2.74679
2.74708
2.74756
2.74837
2.7493
2.74994
2.7501
1
1
1
1
1
1
1
1
1
1
1
1
1
1
1
1
1
1
1
1
1
1
1
1
1
1
1
1
1
1
1
1
1
1
1
1
1
1
1
1
1
1
1
1
1
1
1
1
1
1
1.33624
2.4306
2.64668
2.64769
2.65664
2.66508
2.6725
2.67863
2.6838
2.6887
2.69325
2.69724
2.70059
2.70341
2.70588
2.70814
2.71016
2.71185
2.71303
2.71368
2.71426
2.71508
2.71651
2.71885
2.72185
2.72488
2.72723
2.72888
2.73027
2.732
2.7342
2.73642
2.73819
2.73908
2.73932
2.73936
2.73942
2.73952
2.73958
2.73957
2.73954
2.73969
2.7402
2.74092
2.74142
2.74152
1
1
1
1
1
1
1
1
1
1
1
1
1
1
1
1
1
1
1
1
1
1
1
1
1
1
1
1
1
1
1
1
1
1
1
1
1
1
1
1
1
1
1
1
1
1
1
1
1
1
1.07926
2.3459
2.65007
2.64547
2.64852
2.65401
2.66078
2.66761
2.67419
2.68043
2.68619
2.69149
2.69612
2.70003
2.70324
2.70588
2.70808
2.70978
2.71098
2.71163
2.71193
2.71244
2.7134
2.71489
2.7171
2.71959
2.72174
2.72334
2.72466
2.72622
2.72815
2.73019
2.73192
2.73275
2.73285
2.73267
2.73243
2.73217
2.73188
2.7315
2.73112
2.73088
2.73093
2.73114
2.73127
2.73111
1
1
1
1
1
1
1
1
1
1
1
1
1
1
1
1
1
1
1
1
1
1
1
1
1
1
1
1
1
1
1
1
1
1
1
1
1
1
1
1
1
1
1
1
1
1
1
1
1
1
1.00182
2.26453
2.64688
2.64165
2.64599
2.6498
2.65455
2.65955
2.66526
2.67144
2.67755
2.68349
2.68912
2.6942
2.69848
2.70196
2.70477
2.70693
2.70846
2.70936
2.70974
2.70989
2.71043
2.7114
2.71281
2.71457
2.71629
2.71765
2.71879
2.72011
2.72168
2.72346
2.72504
2.72579
2.72573
2.72534
2.72475
2.72406
2.72325
2.72228
2.72121
2.72028
2.71971
2.71948
2.71935
2.71917
1
1
1
1
1
1
1
1
1
1
1
1
1
1
1
1
1
1
1
1
1
1
1
1
1
1
1
1
1
1
1
1
1
1
1
1
1
1
1
1
1
1
1
1
1
1
1
1
1
1
1
2.12959
2.65093
2.64989
2.65102
2.65216
2.65453
2.65753
2.66095
2.66457
2.66925
2.67477
2.68057
2.68624
2.69145
2.69595
2.69968
2.70264
2.70485
2.70631
2.70709
2.70738
2.70761
2.70813
2.70892
2.70993
2.71103
2.71196
2.71279
2.71377
2.71486
2.71625
2.71755
2.71817
2.71797
2.71733
2.71633
2.71507
2.71357
2.71184
2.71001
2.70833
2.70694
2.7057
2.70455
2.70351
1
1
1
1
1
1
1
1
1
1
1
1
1
1
1
1
1
1
1
1
1
1
1
1
1
1
1
1
1
1
1
1
1
1
1
1
1
1
1
1
1
1
1
1
1
1
1
1
1
1
1
1.9517
2.63202
2.6543
2.65372
2.65524
2.65637
2.65778
2.65922
2.66135
2.66418
2.66777
2.67238
2.67764
2.68304
2.68814
2.6927
2.69656
2.69968
2.70198
2.70347
2.70424
2.7046
2.70494
2.70527
2.70563
2.70605
2.70642
2.70679
2.7073
2.70778
2.70863
2.70947
2.70985
2.70949
2.70855
2.70706
2.70513
2.70279
2.70005
2.69694
2.69365
2.69049
2.68778
2.6856
2.68466
1
1
1
1
1
1
1
1
1
1
1
1
1
1
1
1
1
1
1
1
1
1
1
1
1
1
1
1
1
1
1
1
1
1
1
1
1
1
1
1
1
1
1
1
1
1
1
1
1
1
1
1.73006
2.56266
2.64949
2.65339
2.65666
2.65839
2.65933
2.65991
2.6608
2.66197
2.66388
2.66667
2.67035
2.67481
2.67966
2.68447
2.68891
2.69283
2.69605
2.69849
2.70008
2.70093
2.70138
2.70155
2.70147
2.70132
2.70112
2.70095
2.70075
2.7006
2.70075
2.70094
2.70089
2.70029
2.69898
2.69692
2.69416
2.69072
2.68658
2.68181
2.67674
2.67172
2.66682
2.66111
2.6557
1
1
1
1
1
1
1
1
1
1
1
1
1
1
1
1
1
1
1
1
1
1
1
1
1
1
1
1
1
1
1
1
1
1
1
1
1
1
1
1
1
1
1
1
1
1
1
1
1
1
1
1.42695
2.44161
2.64327
2.6461
2.65045
2.65404
2.65696
2.65913
2.66047
2.66151
2.66245
2.66367
2.66563
2.66847
2.67209
2.67623
2.68055
2.68476
2.68865
2.69195
2.69449
2.69615
2.69701
2.69732
2.69711
2.69663
2.69598
2.69524
2.69425
2.69337
2.6927
2.69212
2.69144
2.69034
2.68853
2.68578
2.68207
2.67733
2.67155
2.66468
2.65665
2.64699
2.63545
2.62352
2.61439
1
1
1
1
1
1
1
1
1
1
1
1
1
1
1
1
1
1
1
1
1
1
1
1
1
1
1
1
1
1
1
1
1
1
1
1
1
1
1
1
1
1
1
1
1
1
1
1
1
1
1
1.08436
2.32735
2.6356
2.63211
2.63643
2.643
2.64972
2.65473
2.65793
2.65995
2.66124
2.6622
2.66315
2.66451
2.66661
2.66941
2.67277
2.67652
2.68046
2.68414
2.6874
2.68994
2.69158
2.69225
2.69217
2.69167
2.69077
2.68952
2.68794
2.68626
2.68466
2.68317
2.68165
2.67979
2.67725
2.67368
2.66888
2.66263
2.65478
2.64492
2.63257
2.61731
2.59907
2.58129
2.57382
1
1
1
1
1
1
1
1
1
1
1
1
1
1
1
1
1
1
1
1
1
1
1
1
1
1
1
1
1
1
1
1
1
1
1
1
1
1
1
1
1
1
1
1
1
1
1
1
1
1
1
1.00179
2.23042
2.62072
2.61915
2.62591
2.63262
2.63979
2.64661
2.65197
2.6559
2.65849
2.66011
2.66114
2.662
2.66305
2.66455
2.66659
2.66923
2.67245
2.67586
2.67926
2.68233
2.68474
2.68609
2.68638
2.68603
2.68512
2.68361
2.6816
2.67925
2.67674
2.67421
2.67163
2.66878
2.66527
2.66067
2.65461
2.64666
2.63642
2.62324
2.60619
2.58275
2.54717
2.48225
2.34253
1
1
1
1
1
1
1
1
1
1
1
1
1
1
1
1
1
1
1
1
1
1
1
1
1
1
1
1
1
1
1
1
1
1
1
1
1
1
1
1
1
1
1
1
1
1
1
1
1
1
1
0.999994
2.05877
2.61356
2.62361
2.62732
2.62968
2.63333
2.63856
2.64408
2.64916
2.65324
2.65618
2.65808
2.65927
2.66015
2.66101
2.66207
2.66352
2.66554
2.66813
2.67092
2.67389
2.67663
2.67866
2.67954
2.67947
2.67879
2.67732
2.6751
2.67227
2.66898
2.66539
2.66161
2.65751
2.65279
2.64694
2.63944
2.62964
2.61682
2.59987
2.57659
2.5429
2.48837
2.40776
2.19402
1
1
1
1
1
1
1
1
1
1
1
1
1
1
1
1
1
1
1
1
1
1
1
1
1
1
1
1
1
1
1
1
1
1
1
1
1
1
1
1
1
1
1
1
1
1
1
1
1
1
1
0.999998
1.82236
2.57393
2.62916
2.6285
2.62974
2.63179
2.63381
2.63721
2.64163
2.64616
2.65011
2.65315
2.65528
2.65671
2.65768
2.65839
2.65906
2.66001
2.66148
2.6632
2.6654
2.66781
2.67007
2.6715
2.67188
2.6715
2.67031
2.66815
2.66507
2.66121
2.65668
2.65167
2.64619
2.64004
2.63273
2.62363
2.61189
2.59647
2.57573
2.54732
2.5051
2.44666
2.32628
2.11886
1
1
1
1
1
1
1
1
1
1
1
1
1
1
1
1
1
1
1
1
1
1
1
1
1
1
1
1
1
1
1
1
1
1
1
1
1
1
1
1
1
1
1
1
1
1
1
1
1
1
1
1
1.48821
2.46083
2.62627
2.62536
2.62745
2.62903
2.63068
2.63297
2.63595
2.63954
2.6433
2.64678
2.64973
2.65203
2.65367
2.6547
2.6552
2.65551
2.65599
2.65664
2.65771
2.65919
2.66097
2.66251
2.66327
2.66317
2.66236
2.6605
2.65746
2.65328
2.64806
2.64195
2.63506
2.62735
2.6184
2.60757
2.59381
2.57603
2.55196
2.51958
2.47205
2.40314
2.27582
2.08852
1
1
1
1
1
1
1
1
1
1
1
1
1
1
1
1
1
1
1
1
1
1
1
1
1
1
1
1
1
1
1
1
1
1
1
1
1
1
1
1
1
1
1
1
1
1
1
1
1
1
1
1
1.09434
2.32756
2.62263
2.6181
2.61954
2.62266
2.62633
2.6289
2.63133
2.63394
2.63682
2.6399
2.64302
2.64592
2.64837
2.65016
2.65107
2.65122
2.65116
2.651
2.65105
2.65136
2.6521
2.6531
2.65383
2.65393
2.65342
2.65193
2.64914
2.64491
2.63926
2.63233
2.6242
2.61496
2.60429
2.59168
2.57596
2.55601
2.52942
2.49353
2.44368
2.36877
2.25064
2.10251
1
1
1
1
1
1
1
1
1
1
1
1
1
1
1
1
1
1
1
1
1
1
1
1
1
1
1
1
1
1
1
1
1
1
1
1
1
1
1
1
1
1
1
1
1
1
1
1
1
1
1
1
1.00221
2.20637
2.60194
2.60322
2.60902
2.61464
2.62005
2.62375
2.62661
2.62896
2.63118
2.63355
2.63624
2.63908
2.64193
2.64444
2.64606
2.64658
2.64638
2.64587
2.64522
2.64456
2.64413
2.64411
2.64419
2.64411
2.64365
2.64238
2.63988
2.63586
2.63012
2.6227
2.61363
2.60308
2.59073
2.57635
2.55878
2.53688
2.50845
2.47045
2.41913
2.34535
2.2429
2.1206
1
1
1
1
1
1
1
1
1
1
1
1
1
1
1
1
1
1
1
1
1
1
1
1
1
1
1
1
1
1
1
1
1
1
1
1
1
1
1
1
1
1
1
1
1
1
1
1
1
1
1
1
0.999989
1.99442
2.5811
2.6044
2.60858
2.61176
2.6147
2.61818
2.62138
2.62394
2.62599
2.62787
2.62998
2.63231
2.63496
2.6377
2.63991
2.64105
2.64104
2.64059
2.63969
2.63846
2.63711
2.63593
2.63499
2.63422
2.63337
2.63204
2.62972
2.62596
2.62039
2.61284
2.60321
2.59167
2.57796
2.56195
2.54271
2.51914
2.48942
2.45069
2.39899
2.33091
2.2419
2.13782
1
1
1
1
1
1
1
1
1
1
1
1
1
1
1
1
1
1
1
1
1
1
1
1
1
1
1
1
1
1
1
1
1
1
1
1
1
1
1
1
1
1
1
1
1
1
1
1
1
1
1
1
0.999997
1.67595
2.50788
2.60373
2.60614
2.6074
2.60968
2.61272
2.61578
2.61851
2.62069
2.62248
2.62422
2.626
2.62813
2.63056
2.63287
2.63449
2.63498
2.63473
2.63394
2.63259
2.63077
2.62874
2.62671
2.62486
2.62316
2.62132
2.61884
2.61522
2.60989
2.6025
2.59276
2.58064
2.56599
2.54868
2.52805
2.50314
2.47267
2.43362
2.38365
2.32171
2.24415
2.15541
1
1
1
1
1
1
1
1
1
1
1
1
1
1
1
1
1
1
1
1
1
1
1
1
1
1
1
1
1
1
1
1
1
1
1
1
1
1
1
1
1
1
1
1
1
1
1
1
1
1
1
1
0.999999
1.26502
2.37816
2.59883
2.59641
2.59881
2.60337
2.60696
2.61002
2.61279
2.61513
2.61706
2.61871
2.62012
2.62173
2.62361
2.62554
2.6272
2.62808
2.62806
2.62757
2.62642
2.62456
2.6221
2.61926
2.61635
2.61353
2.61078
2.60775
2.60394
2.59872
2.59158
2.58204
2.5698
2.55469
2.53653
2.51494
2.48911
2.45822
2.41924
2.37254
2.31621
2.24696
2.17137
1
1
1
1
1
1
1
1
1
1
1
1
1
1
1
1
1
1
1
1
1
1
1
1
1
1
1
1
1
1
1
1
1
1
1
1
1
1
1
1
1
1
1
1
1
1
1
1
1
1
1
1
1
1.01877
2.25259
2.59323
2.58859
2.59139
2.59621
2.60037
2.6037
2.60658
2.60909
2.61127
2.61295
2.61431
2.61563
2.61702
2.6184
2.61967
2.62056
2.62075
2.62049
2.61964
2.61804
2.61559
2.61239
2.60872
2.60483
2.60093
2.59693
2.59252
2.58709
2.58006
2.57081
2.55881
2.54377
2.52534
2.50328
2.47696
2.44612
2.40797
2.36411
2.31219
2.25011
2.18603
1
1
1
1
1
1
1
1
1
1
1
1
1
1
1
1
1
1
1
1
1
1
1
1
1
1
1
1
1
1
1
1
1
1
1
1
1
1
1
1
1
1
1
1
1
1
1
1
1
1
1
1
1
1.00005
2.03142
2.56491
2.58174
2.5876
2.59176
2.59466
2.59748
2.6002
2.60275
2.60503
2.60682
2.60828
2.60953
2.61063
2.61156
2.61232
2.61289
2.61304
2.61285
2.61222
2.61094
2.60877
2.60561
2.60157
2.59691
2.59198
2.58686
2.58152
2.57552
2.56828
2.55917
2.54754
2.53291
2.51477
2.49282
2.46652
2.43635
2.39908
2.35785
2.3096
2.25414
2.1979
1
1
1
1
1
1
1
1
1
1
1
1
1
1
1
1
1
1
1
1
1
1
1
1
1
1
1
1
1
1
1
1
1
1
1
1
1
1
1
1
1
1
1
1
1
1
1
1
1
1
1
1
1
1
1.68165
2.49493
2.58232
2.58518
2.58647
2.58871
2.59137
2.59393
2.59643
2.59861
2.60045
2.60199
2.60327
2.60428
2.60495
2.60528
2.60541
2.6053
2.60496
2.60433
2.60323
2.60138
2.5985
2.59451
2.58952
2.58388
2.57778
2.57136
2.56443
2.55661
2.54732
2.53592
2.52183
2.50439
2.48309
2.45754
2.42802
2.39214
2.35407
2.30857
2.25852
2.20689
1
1
1
1
1
1
1
1
1
1
1
1
1
1
1
1
1
1
1
1
1
1
1
1
1
1
1
1
1
1
1
1
1
1
1
1
1
1
1
1
1
1
1
1
1
1
1
1
1
1
1
1
1
1
1.2293
2.3621
2.58107
2.57546
2.57718
2.58088
2.58436
2.5872
2.58975
2.5919
2.59374
2.59532
2.59665
2.59767
2.59828
2.59836
2.59818
2.59775
2.59711
2.59628
2.59514
2.59345
2.59087
2.58716
2.58223
2.57626
2.56949
2.56217
2.55424
2.54558
2.53576
2.5243
2.51058
2.49391
2.47365
2.44942
2.4206
2.38708
2.3517
2.30863
2.26311
2.21453
1
1
1
1
1
1
1
1
1
1
1
1
1
1
1
1
1
1
1
1
1
1
1
1
1
1
1
1
1
1
1
1
1
1
1
1
1
1
1
1
1
1
1
1
1
1
1
1
1
1
1
1
1
1
1.01314
2.22862
2.56472
2.56317
2.56791
2.57283
2.57689
2.58013
2.58284
2.58506
2.58691
2.58847
2.5898
2.59083
2.59144
2.59143
2.59111
2.59045
2.58949
2.58833
2.58693
2.58516
2.58271
2.57928
2.57463
2.56873
2.5617
2.55378
2.54503
2.53548
2.5249
2.51304
2.4994
2.48331
2.46422
2.44134
2.41379
2.38353
2.34963
2.30863
2.26768
2.22243
1
1
1
1
1
1
1
1
1
1
1
1
1
1
1
1
1
1
1
1
1
1
1
1
1
1
1
1
1
1
1
1
1
1
1
1
1
1
1
1
1
1
1
1
1
1
1
1
1
1
1
1
1
1
1.00001
1.96605
2.53433
2.56071
2.56551
2.56865
2.57123
2.57357
2.57595
2.57808
2.5799
2.58142
2.5827
2.58371
2.58432
2.58432
2.58399
2.58324
2.58206
2.58059
2.57885
2.57679
2.57424
2.57094
2.56658
2.56097
2.55404
2.54588
2.53661
2.52638
2.51508
2.50265
2.48875
2.47288
2.4547
2.43295
2.40781
2.38009
2.34666
2.30943
2.27273
2.23
1
1
1
1
1
1
1
1
1
1
1
1
1
1
1
1
1
1
1
1
1
1
1
1
1
1
1
1
1
1
1
1
1
1
1
1
1
1
1
1
1
1
1
1
1
1
1
1
1
1
1
1
1
1
0.999998
1.54226
2.44056
2.56391
2.5633
2.56416
2.56593
2.56778
2.56958
2.57135
2.57296
2.57436
2.57552
2.57644
2.57701
2.57701
2.5767
2.57595
2.5747
2.57303
2.57097
2.56855
2.5657
2.5623
2.55806
2.55274
2.5461
2.53806
2.52867
2.51807
2.50627
2.49333
2.47909
2.46302
2.44535
2.42459
2.40163
2.37519
2.34388
2.31164
2.27682
2.23616
1
1
1
1
1
1
1
1
1
1
1
1
1
1
1
1
1
1
1
1
1
1
1
1
1
1
1
1
1
1
1
1
1
1
1
1
1
1
1
1
1
1
1
1
1
1
1
1
1
1
1
1
1
1
0.999999
1.08077
2.29222
2.56428
2.55721
2.55795
2.55994
2.56195
2.56343
2.56483
2.56614
2.56733
2.56832
2.56909
2.56956
2.56953
2.56922
2.5685
2.56726
2.56552
2.56326
2.56052
2.55732
2.55365
2.54934
2.54416
2.53781
2.53007
2.52088
2.51027
2.49828
2.48505
2.47053
2.45414
2.43675
2.41636
2.39474
2.37026
2.34175
2.31226
2.27844
2.24199
1
1
1
1
1
1
1
1
1
1
1
1
1
1
1
1
1
1
1
1
1
1
1
1
1
1
1
1
1
1
1
1
1
1
1
1
1
1
1
1
1
1
1
1
1
1
1
1
1
1
1
1
1
1
1
1.00145
2.10052
2.53362
2.54228
2.55012
2.55442
2.55634
2.55764
2.55875
2.5597
2.56056
2.56127
2.5618
2.56207
2.56196
2.56158
2.56085
2.55964
2.55791
2.55557
2.55264
2.54915
2.54516
2.54062
2.53538
2.52917
2.52175
2.51292
2.5026
2.49077
2.47754
2.46289
2.44651
2.42905
2.40876
2.38849
2.36519
2.33853
2.3112
2.27997
2.24819
1
1
1
1
1
1
1
1
1
1
1
1
1
1
1
1
1
1
1
1
1
1
1
1
1
1
1
1
1
1
1
1
1
1
1
1
1
1
1
1
1
1
1
1
1
1
1
1
1
1
1
1
1
1
1
0.99999
1.71052
2.46487
2.54268
2.54539
2.54809
2.5505
2.55202
2.55305
2.55379
2.55434
2.5547
2.55486
2.5548
2.55451
2.55397
2.55313
2.5519
2.55018
2.54784
2.54484
2.54117
2.53693
2.53211
2.52668
2.52045
2.51323
2.50475
2.49484
2.48342
2.47044
2.45595
2.43978
2.42216
2.40266
2.38299
2.35937
2.33494
2.31
2.28143
2.25208
1
1
1
1
1
1
1
1
1
1
1
1
1
1
1
1
1
1
1
1
1
1
1
1
1
1
1
1
1
1
1
1
1
1
1
1
1
1
1
1
1
1
1
1
1
1
1
1
1
1
1
1
1
1
1
0.999997
1.18695
2.3252
2.54275
2.53655
2.53836
2.54182
2.54445
2.54621
2.54737
2.548
2.54823
2.54812
2.54777
2.5472
2.54642
2.54541
2.54407
2.54231
2.53998
2.53699
2.53327
2.52888
2.52384
2.51819
2.51183
2.50464
2.49641
2.4869
2.47602
2.46345
2.44937
2.43357
2.4163
2.39771
2.37768
2.35449
2.33247
2.30843
2.28136
2.25363
1
1
1
1
1
1
1
1
1
1
1
1
1
1
1
1
1
1
1
1
1
1
1
1
1
1
1
1
1
1
1
1
1
1
1
1
1
1
1
1
1
1
1
1
1
1
1
1
1
1
1
1
1
1
1
1
1.00829
2.16672
2.52012
2.5222
2.5281
2.53311
2.53574
2.53826
2.54011
2.54123
2.54171
2.54154
2.54104
2.54023
2.53918
2.53791
2.53636
2.53448
2.5321
2.52913
2.52543
2.521
2.51583
2.51001
2.50349
2.49624
2.48811
2.47888
2.4685
2.45634
2.44285
2.42761
2.41101
2.39302
2.37308
2.35163
2.33029
2.30583
2.28071
2.2548
1
1
1
1
1
1
1
1
1
1
1
1
1
1
1
1
1
1
1
1
1
1
1
1
1
1
1
1
1
1
1
1
1
1
1
1
1
1
1
1
1
1
1
1
1
1
1
1
1
1
1
1
1
1
1
1
0.999988
1.79562
2.46848
2.5202
2.52327
2.52541
2.52791
2.53032
2.53231
2.53384
2.53479
2.53479
2.53436
2.53347
2.5322
2.53066
2.52885
2.52676
2.52426
2.52125
2.51758
2.51317
2.50798
2.50207
2.49545
2.48813
2.48
2.47093
2.46092
2.4491
2.4363
2.42165
2.40575
2.38866
2.36962
2.34929
2.32761
2.3042
2.28121
2.25635
1
1
1
1
1
1
1
1
1
1
1
1
1
1
1
1
1
1
1
1
1
1
1
1
1
1
1
1
1
1
1
1
1
1
1
1
1
1
1
1
1
1
1
1
1
1
1
1
1
1
1
1
1
1
1
1
0.999995
1.25592
2.34203
2.52338
2.51666
2.51741
2.51927
2.52146
2.52344
2.52531
2.52681
2.52747
2.52728
2.52659
2.52534
2.52366
2.52164
2.51931
2.51663
2.51352
2.50982
2.50543
2.50027
2.49436
2.48771
2.48034
2.4722
2.46318
2.45334
2.44184
2.42964
2.41548
2.40058
2.38456
2.36608
2.34652
2.32563
2.30423
2.282
2.25707
1
1
1
1
1
1
1
1
1
1
1
1
1
1
1
1
1
1
1
1
1
1
1
1
1
1
1
1
1
1
1
1
1
1
1
1
1
1
1
1
1
1
1
1
1
1
1
1
1
1
1
1
1
1
1
1
0.999999
1.01544
2.18346
2.50497
2.50487
2.50819
2.5115
2.51317
2.51471
2.51646
2.51815
2.51937
2.51969
2.51931
2.51831
2.5167
2.5146
2.51211
2.50923
2.50597
2.50218
2.49778
2.49266
2.4868
2.4802
2.47283
2.46473
2.45571
2.44595
2.43483
2.42298
2.40935
2.39553
2.37997
2.36219
2.34402
2.3246
2.30421
2.28222
2.2577
1
1
1
1
1
1
1
1
1
1
1
1
1
1
1
1
1
1
1
1
1
1
1
1
1
1
1
1
1
1
1
1
1
1
1
1
1
1
1
1
1
1
1
1
1
1
1
1
1
1
1
1
1
1
1
1
1
1.00001
1.79498
2.45334
2.50323
2.50412
2.50476
2.50629
2.50738
2.50848
2.50971
2.51091
2.51165
2.51153
2.51086
2.50952
2.50755
2.50505
2.50209
2.4987
2.49479
2.49033
2.48521
2.4794
2.47286
2.46556
2.45752
2.44847
2.43878
2.42803
2.41634
2.40343
2.39024
2.37483
2.35837
2.34179
2.32331
2.30325
2.28184
2.25891
1
1
1
1
1
1
1
1
1
1
1
1
1
1
1
1
1
1
1
1
1
1
1
1
1
1
1
1
1
1
1
1
1
1
1
1
1
1
1
1
1
1
1
1
1
1
1
1
1
1
1
1
1
1
1
1
1
0.999998
1.22393
2.32196
2.50785
2.49896
2.49912
2.49931
2.49994
2.50039
2.50114
2.5021
2.50297
2.50317
2.50281
2.50182
2.50014
2.49784
2.49495
2.49156
2.4876
2.48308
2.47796
2.47217
2.46568
2.45851
2.45056
2.44152
2.43196
2.42148
2.41001
2.39781
2.38478
2.36983
2.35476
2.33916
2.32103
2.30174
2.28206
2.26082
1
1
1
1
1
1
1
1
1
1
1
1
1
1
1
1
1
1
1
1
1
1
1
1
1
1
1
1
1
1
1
1
1
1
1
1
1
1
1
1
1
1
1
1
1
1
1
1
1
1
1
1
1
1
1
1
1
0.999999
1.01158
2.14896
2.48513
2.48511
2.48823
2.49241
2.4927
2.49279
2.49316
2.4937
2.49431
2.49458
2.49437
2.49366
2.49232
2.49031
2.48767
2.48442
2.48054
2.47605
2.47091
2.46515
2.4587
2.4516
2.44368
2.43479
2.42541
2.41515
2.40398
2.39218
2.37928
2.36521
2.35106
2.33562
2.31799
2.30046
2.28239
2.26206
1
1
1
1
1
1
1
1
1
1
1
1
1
1
1
1
1
1
1
1
1
1
1
1
1
1
1
1
1
1
1
1
1
1
1
1
1
1
1
1
1
1
1
1
1
1
1
1
1
1
1
1
1
1
1
1
1
1
1
1.71154
2.4182
2.48681
2.48668
2.48636
2.48647
2.4866
2.48653
2.48636
2.48629
2.48617
2.48585
2.48518
2.48403
2.48233
2.48
2.47705
2.47339
2.46908
2.46405
2.45833
2.45196
2.44488
2.43705
2.42838
2.41919
2.40913
2.39823
2.38668
2.37422
2.36094
2.34703
2.33174
2.31521
2.29917
2.28206
2.26243
1
1
1
1
1
1
1
1
1
1
1
1
1
1
1
1
1
1
1
1
1
1
1
1
1
1
1
1
1
1
1
1
1
1
1
1
1
1
1
1
1
1
1
1
1
1
1
1
1
1
1
1
1
1
1
1
1
1
0.999996
1.13828
2.27338
2.49122
2.48217
2.48037
2.48001
2.48039
2.47994
2.47927
2.47868
2.47811
2.47749
2.47668
2.47556
2.47403
2.47196
2.46933
2.46599
2.46197
2.45716
2.4516
2.4453
2.43832
2.43064
2.42216
2.41315
2.40327
2.39259
2.38139
2.36948
2.3565
2.34268
2.32806
2.31274
2.29741
2.28055
2.26191
1
1
1
1
1
1
1
1
1
1
1
1
1
1
1
1
1
1
1
1
1
1
1
1
1
1
1
1
1
1
1
1
1
1
1
1
1
1
1
1
1
1
1
1
1
1
1
1
1
1
1
1
1
1
1
1
1
1
0.999999
1.0043
2.05189
2.45835
2.4638
2.46922
2.47392
2.47418
2.47358
2.47276
2.47183
2.4708
2.46971
2.46855
2.46722
2.46564
2.46369
2.46128
2.45827
2.4546
2.45014
2.44487
2.4388
2.43197
2.42444
2.41618
2.40735
2.39763
2.38723
2.37644
2.36485
2.35198
2.33861
2.32483
2.31029
2.29504
2.27834
2.26108
1
1
1
1
1
1
1
1
1
1
1
1
1
1
1
1
1
1
1
1
1
1
1
1
1
1
1
1
1
1
1
1
1
1
1
1
1
1
1
1
1
1
1
1
1
1
1
1
1
1
1
1
1
1
1
1
1
1
1
0.999987
1.53283
2.36387
2.45857
2.46449
2.46822
2.46775
2.46718
2.46661
2.46571
2.46439
2.46286
2.46122
2.45948
2.45759
2.45548
2.45308
2.45024
2.44684
2.44275
2.43785
2.43213
2.42558
2.41826
2.41026
2.40162
2.39211
2.38208
2.37161
2.36009
2.34757
2.33496
2.32171
2.30737
2.29211
2.27628
2.26048
1
1
1
1
1
1
1
1
1
1
1
1
1
1
1
1
1
1
1
1
1
1
1
1
1
1
1
1
1
1
1
1
1
1
1
1
1
1
1
1
1
1
1
1
1
1
1
1
1
1
1
1
1
1
1
1
1
1
1
0.999996
1.07203
2.19864
2.4587
2.45736
2.45908
2.45893
2.45928
2.45961
2.4591
2.45791
2.45629
2.45439
2.4523
2.45005
2.44765
2.44507
2.44221
2.43894
2.43511
2.43057
2.42525
2.41909
2.4121
2.40441
2.39598
2.38678
2.37712
2.36685
2.35546
2.34354
2.33148
2.31841
2.30423
2.28948
2.2748
2.2599
1
1
1
1
1
1
1
1
1
1
1
1
1
1
1
1
1
1
1
1
1
1
1
1
1
1
1
1
1
1
1
1
1
1
1
1
1
1
1
1
1
1
1
1
1
1
1
1
1
1
1
1
1
1
1
1
1
1
1
0.999999
1.00097
1.82934
2.4054
2.44392
2.44705
2.4482
2.45095
2.45255
2.45227
2.45138
2.44998
2.4481
2.44582
2.44322
2.44042
2.43747
2.43435
2.43098
2.42724
2.42294
2.41799
2.41225
2.4057
2.3984
2.3903
2.38148
2.37213
2.36203
2.35104
2.33973
2.32785
2.31487
2.30122
2.28741
2.27348
2.25865
1
1
1
1
1
1
1
1
1
1
1
1
1
1
1
1