/*--------------------------------*- C++ -*----------------------------------*\
  =========                 |
  \\      /  F ield         | OpenFOAM: The Open Source CFD Toolbox
   \\    /   O peration     | Website:  https://openfoam.org
    \\  /    A nd           | Version:  7
     \\/     M anipulation  |
\*---------------------------------------------------------------------------*/
FoamFile
{
    version     2.0;
    format      ascii;
    class       volVectorField;
    location    "3.4";
    object      U;
}
// * * * * * * * * * * * * * * * * * * * * * * * * * * * * * * * * * * * * * //

dimensions      [0 1 -1 0 0 0 0];

internalField   nonuniform List<vector> 
64512
(
(3 1.42118e-16 0)
(3 -7.01538e-17 0)
(3 -3.77564e-16 0)
(3 -8.04458e-16 0)
(3 -7.82218e-16 0)
(3 -8.80584e-16 0)
(3 -1.01893e-15 0)
(3 -1.4791e-15 0)
(3 -9.71251e-16 0)
(3 -5.26322e-16 0)
(3 -3.10026e-16 0)
(3 -4.17998e-16 0)
(3 -8.7888e-16 0)
(3 -8.56506e-16 0)
(3 -2.92229e-16 0)
(3 -7.05412e-16 0)
(3 -8.96065e-16 0)
(3 -4.07146e-16 0)
(3 1.98071e-16 0)
(3 7.02244e-16 0)
(3 7.96924e-16 0)
(3 6.44456e-16 0)
(3 9.41615e-16 0)
(3 1.52384e-15 0)
(3 1.4576e-15 0)
(3 1.07898e-15 0)
(3 8.20257e-16 0)
(3 5.21748e-16 0)
(3 -5.73595e-16 0)
(3 -1.03307e-15 0)
(3 -5.56582e-16 0)
(3 4.35519e-16 0)
(3 7.20017e-16 0)
(3 5.43319e-16 0)
(3 3.43927e-16 0)
(3 -5.99935e-17 0)
(3 -3.26252e-17 0)
(3 6.65826e-16 0)
(3 1.10693e-15 0)
(3 1.47602e-15 0)
(3 1.39936e-15 0)
(3 1.04947e-15 0)
(3 1.25819e-15 0)
(3 9.80658e-16 0)
(3 7.35923e-16 0)
(3 3.12903e-16 0)
(3 3.72617e-16 0)
(3 9.06214e-16 0)
(3 2.06066e-16 0)
(1.13013 0.00431595 0)
(0.767448 0.00376184 0)
(0.750123 0.00541479 0)
(0.73633 0.00605543 0)
(0.720952 0.00648494 0)
(0.704904 0.00682202 0)
(0.688226 0.00690587 0)
(0.671671 0.00666677 0)
(0.655981 0.00623573 0)
(0.641435 0.00589843 0)
(0.627655 0.00587688 0)
(0.613848 0.00620775 0)
(0.599273 0.00675559 0)
(0.583697 0.00723693 0)
(0.567625 0.00733651 0)
(0.55201 0.00698909 0)
(0.537419 0.0065548 0)
(0.523469 0.00643636 0)
(0.509188 0.00671984 0)
(0.493757 0.00722874 0)
(0.4771 0.00757494 0)
(0.460109 0.00742926 0)
(0.443757 0.00711127 0)
(0.42792 0.00717602 0)
(0.411876 0.00753205 0)
(0.39553 0.00773529 0)
(0.379309 0.00773657 0)
(0.36328 0.00780883 0)
(0.34719 0.00799312 0)
(0.330941 0.00814358 0)
(0.31456 0.00822063 0)
(0.298008 0.00828129 0)
(0.28122 0.00835652 0)
(0.264177 0.00844706 0)
(0.246891 0.00854932 0)
(0.229384 0.00866621 0)
(0.211652 0.00880861 0)
(0.19365 0.00897695 0)
(0.175291 0.00917177 0)
(0.156471 0.00938481 0)
(0.137103 0.00961608 0)
(0.117151 0.00986351 0)
(0.0966362 0.0101298 0)
(0.0756396 0.0103919 0)
(0.0542459 0.0106447 0)
(0.0325786 0.0107509 0)
(0.0110887 0.0108428 0)
(3 9.24091e-17 0)
(3 -4.46477e-16 0)
(3 -9.40308e-16 0)
(3 -8.9481e-16 0)
(3 -8.82932e-16 0)
(3 -1.3834e-15 0)
(3 -1.80427e-15 0)
(3 -1.75747e-15 0)
(3 -1.67631e-15 0)
(3 -1.10702e-15 0)
(3 -8.43516e-16 0)
(3 -1.74345e-15 0)
(3 -2.48581e-15 0)
(3 -2.14319e-15 0)
(3 -1.15141e-15 0)
(3 -1.14618e-15 0)
(3 -1.09331e-15 0)
(3 -1.91406e-16 0)
(3 4.64913e-16 0)
(3 9.97929e-16 0)
(3 1.44205e-15 0)
(3 1.72055e-15 0)
(3 1.61e-15 0)
(3 1.49131e-15 0)
(3 6.63974e-16 0)
(3 -3.27336e-16 0)
(3 -1.02683e-15 0)
(3 -1.04975e-15 0)
(3 -1.39539e-15 0)
(3 -1.51792e-15 0)
(3 -9.39451e-16 0)
(3 9.39305e-17 0)
(3 9.02278e-16 0)
(3 9.92672e-16 0)
(3 5.48035e-16 0)
(3 3.5079e-16 0)
(3 1.43054e-16 0)
(3 4.46531e-16 0)
(3 9.82656e-16 0)
(3 1.30235e-15 0)
(3 2.20331e-15 0)
(3 2.54046e-15 0)
(3 2.16341e-15 0)
(3 1.55857e-15 0)
(3 9.605e-16 0)
(3 5.27351e-16 0)
(3 4.39555e-16 0)
(3 6.74459e-16 0)
(3 8.90526e-16 0)
(1.13616 0.0194376 0)
(0.765191 0.0152634 0)
(0.74656 0.0150977 0)
(0.733319 0.0174794 0)
(0.718155 0.018825 0)
(0.702395 0.0199894 0)
(0.685875 0.0203862 0)
(0.669317 0.0198218 0)
(0.65346 0.0185805 0)
(0.638659 0.0174633 0)
(0.624645 0.0172258 0)
(0.610746 0.0180976 0)
(0.59626 0.0197028 0)
(0.580875 0.0211918 0)
(0.564958 0.0216406 0)
(0.549372 0.0207743 0)
(0.534665 0.0195251 0)
(0.520513 0.0191 0)
(0.506092 0.0198717 0)
(0.490641 0.0213566 0)
(0.474016 0.0224052 0)
(0.457062 0.0220231 0)
(0.440695 0.0211283 0)
(0.424789 0.0213014 0)
(0.40874 0.0223398 0)
(0.392417 0.0229195 0)
(0.376232 0.022916 0)
(0.360222 0.0231404 0)
(0.344134 0.0237131 0)
(0.327869 0.0241937 0)
(0.311473 0.0244663 0)
(0.294925 0.0247002 0)
(0.278173 0.0249756 0)
(0.261207 0.0252806 0)
(0.244048 0.0256024 0)
(0.226718 0.0259588 0)
(0.20921 0.0263952 0)
(0.191472 0.026919 0)
(0.173412 0.0275294 0)
(0.154918 0.0281941 0)
(0.135893 0.0289097 0)
(0.116287 0.0296732 0)
(0.0960974 0.0305033 0)
(0.0753734 0.0313364 0)
(0.0541774 0.0321556 0)
(0.0326127 0.0325435 0)
(0.0111305 0.0329133 0)
(3 -2.0351e-16 0)
(3 -3.86371e-16 0)
(3 -2.08281e-16 0)
(3 -4.59554e-17 0)
(3 -2.94072e-16 0)
(3 -4.08818e-16 0)
(3 -3.70426e-16 0)
(3 -2.54834e-16 0)
(3 -2.66407e-16 0)
(3 -8.54102e-16 0)
(3 -1.58127e-15 0)
(3 -2.46699e-15 0)
(3 -1.67743e-15 0)
(3 -9.60023e-16 0)
(3 -8.3523e-16 0)
(3 -9.58763e-16 0)
(3 -2.79598e-16 0)
(3 -2.03393e-16 0)
(3 2.48927e-16 0)
(3 6.30932e-16 0)
(3 1.17932e-15 0)
(3 1.83737e-15 0)
(3 1.87374e-15 0)
(3 1.18569e-15 0)
(3 2.68735e-16 0)
(3 -1.00582e-15 0)
(3 -1.06376e-15 0)
(3 -1.12101e-15 0)
(3 -1.36226e-15 0)
(3 -1.38473e-15 0)
(3 -1.57997e-15 0)
(3 -1.63641e-15 0)
(3 -1.04941e-15 0)
(3 -1.14061e-15 0)
(3 -1.25064e-15 0)
(3 -4.00112e-16 0)
(3 -3.72647e-16 0)
(3 -7.5716e-17 0)
(3 -1.84132e-16 0)
(3 1.21744e-15 0)
(3 1.87335e-15 0)
(3 2.26706e-15 0)
(3 1.96042e-15 0)
(3 1.8341e-15 0)
(3 1.72893e-15 0)
(3 9.49165e-16 0)
(3 9.14547e-16 0)
(3 6.96947e-16 0)
(3 2.8083e-16 0)
(1.15374 0.0335722 0)
(0.767269 0.0268942 0)
(0.747036 0.025909 0)
(0.733682 0.0293312 0)
(0.71838 0.0313833 0)
(0.70276 0.0332578 0)
(0.686333 0.033998 0)
(0.669741 0.0332971 0)
(0.653641 0.031496 0)
(0.638407 0.0297736 0)
(0.623898 0.029316 0)
(0.609646 0.0305566 0)
(0.595069 0.0329727 0)
(0.579788 0.0352761 0)
(0.564 0.0360432 0)
(0.548457 0.0348049 0)
(0.533633 0.0328998 0)
(0.519214 0.0322147 0)
(0.504561 0.0334098 0)
(0.489018 0.0357542 0)
(0.47234 0.0374188 0)
(0.455336 0.0368251 0)
(0.43886 0.035418 0)
(0.422762 0.0357062 0)
(0.406605 0.0373917 0)
(0.390183 0.038341 0)
(0.373903 0.0383412 0)
(0.35777 0.0387082 0)
(0.341535 0.0396261 0)
(0.325086 0.0403718 0)
(0.308481 0.0407649 0)
(0.291723 0.0411007 0)
(0.274783 0.0415179 0)
(0.257676 0.0419899 0)
(0.24044 0.0424842 0)
(0.223105 0.0430226 0)
(0.205668 0.0436809 0)
(0.18808 0.0444811 0)
(0.170252 0.0454372 0)
(0.152076 0.0465079 0)
(0.133453 0.047693 0)
(0.114313 0.048985 0)
(0.0946142 0.0504129 0)
(0.0743559 0.0518642 0)
(0.0535667 0.0533053 0)
(0.0323131 0.0540411 0)
(0.0110616 0.0547755 0)
(3 3.15401e-17 0)
(3 1.6196e-16 0)
(3 1.80559e-16 0)
(3 1.36414e-16 0)
(3 -5.32087e-16 0)
(3 -3.42053e-16 0)
(3 -4.71743e-16 0)
(3 -4.21813e-16 0)
(3 -4.97312e-16 0)
(3 -7.46009e-16 0)
(3 -1.21925e-15 0)
(3 -1.38938e-15 0)
(3 -2.19082e-16 0)
(3 4.69871e-19 0)
(3 -2.68363e-17 0)
(3 -3.85334e-16 0)
(3 -2.79506e-16 0)
(3 -3.24002e-16 0)
(3 2.56015e-16 0)
(3 1.18504e-15 0)
(3 6.96973e-16 0)
(3 2.71841e-16 0)
(3 4.81814e-16 0)
(3 5.12888e-16 0)
(3 1.75739e-16 0)
(3 -3.1888e-16 0)
(3 -1.28533e-17 0)
(3 -3.85507e-16 0)
(3 -1.13441e-15 0)
(3 -1.38572e-15 0)
(3 -1.61084e-15 0)
(3 -1.4267e-15 0)
(3 -2.44831e-15 0)
(3 -2.988e-15 0)
(3 -3.1877e-15 0)
(3 -2.64069e-15 0)
(3 -1.71107e-15 0)
(3 -4.07233e-16 0)
(3 1.1864e-15 0)
(3 2.04502e-15 0)
(3 1.65685e-15 0)
(3 1.34855e-15 0)
(3 1.13257e-15 0)
(3 1.30827e-15 0)
(3 1.27631e-15 0)
(3 1.10138e-15 0)
(3 8.39529e-16 0)
(3 -9.56137e-19 0)
(3 -3.76246e-16 0)
(1.179 0.0472596 0)
(0.768934 0.0389603 0)
(0.747262 0.0366062 0)
(0.734301 0.0409115 0)
(0.719161 0.0435429 0)
(0.703954 0.0460916 0)
(0.68786 0.0472494 0)
(0.671465 0.0466048 0)
(0.655336 0.0445024 0)
(0.639882 0.0423238 0)
(0.625074 0.0416405 0)
(0.610626 0.0431168 0)
(0.596086 0.0461552 0)
(0.581002 0.0491169 0)
(0.565386 0.0502188 0)
(0.549883 0.0487982 0)
(0.534944 0.0464037 0)
(0.520285 0.0455025 0)
(0.50546 0.0470732 0)
(0.489916 0.0501937 0)
(0.473251 0.0524491 0)
(0.456207 0.0517437 0)
(0.439588 0.0499443 0)
(0.423248 0.050375 0)
(0.406955 0.0526834 0)
(0.390392 0.0540212 0)
(0.373947 0.0540698 0)
(0.357599 0.0546109 0)
(0.341108 0.0558859 0)
(0.324344 0.056903 0)
(0.307376 0.0574178 0)
(0.290232 0.0578523 0)
(0.272917 0.0584064 0)
(0.255469 0.0590344 0)
(0.23794 0.0596718 0)
(0.220359 0.0603304 0)
(0.202727 0.0611106 0)
(0.185009 0.0620564 0)
(0.167148 0.0632169 0)
(0.149069 0.0645651 0)
(0.130695 0.066122 0)
(0.111945 0.0678833 0)
(0.092733 0.0698933 0)
(0.0729879 0.0719832 0)
(0.0526909 0.074094 0)
(0.0318437 0.0752486 0)
(0.0109369 0.0764389 0)
(3 1.27751e-16 0)
(3 -1.36864e-16 0)
(3 -8.81796e-16 0)
(3 -1.01808e-15 0)
(3 -9.34995e-16 0)
(3 -1.18168e-15 0)
(3 -1.1581e-15 0)
(3 -9.28199e-16 0)
(3 -5.75045e-16 0)
(3 -5.20134e-16 0)
(3 -1.2551e-16 0)
(3 8.64403e-17 0)
(3 -1.28611e-16 0)
(3 -3.75633e-16 0)
(3 -6.57082e-16 0)
(3 -9.17123e-16 0)
(3 -1.58873e-15 0)
(3 -1.16674e-15 0)
(3 -1.05185e-15 0)
(3 -7.29075e-16 0)
(3 4.08601e-16 0)
(3 -8.71399e-16 0)
(3 -1.32134e-15 0)
(3 -1.34906e-15 0)
(3 -8.76302e-16 0)
(3 -7.06074e-16 0)
(3 -8.75436e-16 0)
(3 -1.47357e-15 0)
(3 -1.72334e-15 0)
(3 -2.10614e-15 0)
(3 -2.00707e-15 0)
(3 -2.66658e-15 0)
(3 -3.59601e-15 0)
(3 -3.83534e-15 0)
(3 -3.93381e-15 0)
(3 -3.31456e-15 0)
(3 -1.40919e-15 0)
(3 8.14564e-16 0)
(3 2.18972e-15 0)
(3 2.21719e-15 0)
(3 2.39208e-15 0)
(3 2.07849e-15 0)
(3 1.17147e-15 0)
(3 5.89545e-16 0)
(3 5.63356e-16 0)
(3 5.9207e-16 0)
(3 3.08063e-16 0)
(3 2.17539e-16 0)
(3 1.88419e-15 0)
(1.21341 0.0614766 0)
(0.770908 0.0517645 0)
(0.746968 0.0473516 0)
(0.734231 0.0522212 0)
(0.719207 0.0553874 0)
(0.704332 0.0586098 0)
(0.68848 0.060287 0)
(0.672199 0.0599153 0)
(0.655994 0.0577566 0)
(0.64034 0.0552055 0)
(0.625299 0.0542035 0)
(0.61073 0.0557161 0)
(0.596321 0.0591716 0)
(0.581544 0.0626947 0)
(0.56619 0.0642073 0)
(0.550772 0.062819 0)
(0.53578 0.0600695 0)
(0.52098 0.0589088 0)
(0.506128 0.0607263 0)
(0.49079 0.0645065 0)
(0.474359 0.067341 0)
(0.457457 0.0666636 0)
(0.440864 0.0645987 0)
(0.424448 0.0651729 0)
(0.408204 0.0680605 0)
(0.391671 0.0698043 0)
(0.375215 0.0699445 0)
(0.358792 0.0706839 0)
(0.342171 0.0723255 0)
(0.325191 0.0736331 0)
(0.307928 0.0742958 0)
(0.29044 0.0748602 0)
(0.272766 0.0755904 0)
(0.254968 0.0764192 0)
(0.237098 0.077237 0)
(0.219175 0.0780254 0)
(0.201193 0.0788924 0)
(0.183129 0.0798989 0)
(0.164968 0.0811375 0)
(0.146695 0.0826123 0)
(0.128284 0.0843874 0)
(0.109673 0.0864812 0)
(0.0907641 0.0889754 0)
(0.0714271 0.0916497 0)
(0.0516048 0.0944235 0)
(0.0312067 0.0960354 0)
(0.0107468 0.0977408 0)
(3 2.17314e-17 0)
(3 7.97945e-17 0)
(3 -3.9846e-17 0)
(3 -4.75144e-16 0)
(3 -4.68427e-16 0)
(3 -5.29788e-16 0)
(3 -7.76737e-17 0)
(3 1.66904e-16 0)
(3 1.25494e-16 0)
(3 7.02957e-17 0)
(3 4.66094e-16 0)
(3 7.75971e-16 0)
(3 7.81927e-16 0)
(3 3.40177e-16 0)
(3 -2.09486e-16 0)
(3 -6.34837e-16 0)
(3 -7.29581e-16 0)
(3 -4.5912e-16 0)
(3 -1.79739e-15 0)
(3 -2.08028e-15 0)
(3 -1.29245e-15 0)
(3 -4.56642e-16 0)
(3 -9.79471e-16 0)
(3 -1.95474e-15 0)
(3 -2.06962e-15 0)
(3 -1.38771e-15 0)
(3 -1.57474e-15 0)
(3 -2.25468e-15 0)
(3 -2.19702e-15 0)
(3 -2.06775e-15 0)
(3 -2.02054e-15 0)
(3 -2.65759e-15 0)
(3 -2.54977e-15 0)
(3 -2.42575e-15 0)
(3 -2.04472e-15 0)
(3 -1.25277e-15 0)
(3 -1.55136e-17 0)
(3 1.1586e-15 0)
(3 1.59681e-15 0)
(3 9.04181e-16 0)
(3 8.83234e-16 0)
(3 9.06538e-16 0)
(3 8.84659e-16 0)
(3 9.52844e-16 0)
(3 1.08581e-15 0)
(3 9.37418e-16 0)
(3 5.55393e-16 0)
(3 7.29844e-16 0)
(3 -2.53978e-15 0)
(1.259 0.0762049 0)
(0.77364 0.0655107 0)
(0.746741 0.058259 0)
(0.733954 0.0632263 0)
(0.71907 0.0669031 0)
(0.704463 0.0708222 0)
(0.688779 0.0731542 0)
(0.67256 0.0732439 0)
(0.6563 0.0711404 0)
(0.640529 0.0682623 0)
(0.625345 0.0668686 0)
(0.610683 0.0682237 0)
(0.596373 0.0719026 0)
(0.581865 0.0759168 0)
(0.566739 0.0779493 0)
(0.551368 0.0768254 0)
(0.53632 0.0738613 0)
(0.521414 0.0723847 0)
(0.506569 0.0742949 0)
(0.491502 0.0786078 0)
(0.475384 0.082034 0)
(0.458672 0.0815625 0)
(0.442149 0.0793715 0)
(0.425712 0.0800762 0)
(0.409583 0.0834764 0)
(0.393163 0.0856323 0)
(0.376781 0.0858983 0)
(0.360388 0.0868457 0)
(0.343764 0.0888551 0)
(0.326709 0.0904765 0)
(0.309297 0.0913207 0)
(0.291617 0.092049 0)
(0.273742 0.0929959 0)
(0.255752 0.094077 0)
(0.237686 0.0951303 0)
(0.219535 0.0960923 0)
(0.201272 0.0970657 0)
(0.182874 0.0981211 0)
(0.16436 0.0993938 0)
(0.145771 0.100917 0)
(0.127138 0.102798 0)
(0.108432 0.105081 0)
(0.0895717 0.107911 0)
(0.0704013 0.111037 0)
(0.0508538 0.114391 0)
(0.0307419 0.116441 0)
(0.0106103 0.118668 0)
(3 7.36481e-17 0)
(3 3.1302e-16 0)
(3 2.7197e-16 0)
(3 -1.33462e-18 0)
(3 -7.9083e-17 0)
(3 3.21211e-16 0)
(3 4.40591e-16 0)
(3 6.67845e-16 0)
(3 3.78658e-16 0)
(3 4.26668e-16 0)
(3 4.84754e-16 0)
(3 7.49379e-16 0)
(3 3.03109e-16 0)
(3 7.78461e-17 0)
(3 -9.28113e-17 0)
(3 3.68958e-16 0)
(3 6.7017e-16 0)
(3 3.38674e-16 0)
(3 -2.80688e-16 0)
(3 -1.36454e-15 0)
(3 -1.91411e-15 0)
(3 -1.48732e-15 0)
(3 -1.20997e-15 0)
(3 -1.02258e-15 0)
(3 -1.11735e-15 0)
(3 -2.09572e-15 0)
(3 -3.15083e-15 0)
(3 -3.11327e-15 0)
(3 -2.56916e-15 0)
(3 -1.78832e-15 0)
(3 -1.69788e-15 0)
(3 -1.84837e-15 0)
(3 -1.29777e-15 0)
(3 -1.00554e-15 0)
(3 -1.46959e-16 0)
(3 1.06713e-15 0)
(3 1.10868e-15 0)
(3 6.23395e-16 0)
(3 2.22267e-16 0)
(3 -3.12318e-16 0)
(3 -1.1527e-15 0)
(3 -1.01199e-15 0)
(3 -4.60957e-16 0)
(3 1.13331e-15 0)
(3 1.0545e-15 0)
(3 8.60577e-16 0)
(3 9.98539e-16 0)
(3 9.40377e-16 0)
(3 -7.12954e-16 0)
(1.3174 0.0912033 0)
(0.777171 0.0803888 0)
(0.746761 0.0695024 0)
(0.733645 0.0740778 0)
(0.718896 0.0781778 0)
(0.704486 0.0827819 0)
(0.688961 0.0858732 0)
(0.672839 0.0865794 0)
(0.656576 0.0847042 0)
(0.640758 0.081501 0)
(0.625481 0.079571 0)
(0.610711 0.0806518 0)
(0.596383 0.0844043 0)
(0.581998 0.0888522 0)
(0.566981 0.091494 0)
(0.551561 0.090829 0)
(0.536417 0.0877756 0)
(0.521435 0.0859066 0)
(0.50663 0.08773 0)
(0.491903 0.0924382 0)
(0.476208 0.0964752 0)
(0.45976 0.0963994 0)
(0.443378 0.0942178 0)
(0.426985 0.095024 0)
(0.41103 0.0988441 0)
(0.394794 0.101396 0)
(0.37856 0.101796 0)
(0.362293 0.102932 0)
(0.345788 0.105292 0)
(0.328792 0.107253 0)
(0.311369 0.108326 0)
(0.293631 0.109264 0)
(0.275685 0.110473 0)
(0.257621 0.11186 0)
(0.239457 0.113207 0)
(0.221153 0.114398 0)
(0.20266 0.115521 0)
(0.18396 0.116652 0)
(0.165102 0.117966 0)
(0.146172 0.119522 0)
(0.127246 0.121461 0)
(0.108326 0.123848 0)
(0.0893475 0.126904 0)
(0.0701455 0.130365 0)
(0.0506633 0.134218 0)
(0.0306152 0.136681 0)
(0.0105976 0.139426 0)
(3 -2.52958e-17 0)
(3 -1.89849e-16 0)
(3 -2.82305e-16 0)
(3 -7.89031e-16 0)
(3 -7.59089e-16 0)
(3 -2.46994e-16 0)
(3 -2.64647e-16 0)
(3 -7.63939e-17 0)
(3 -1.05585e-16 0)
(3 5.6493e-16 0)
(3 3.83592e-16 0)
(3 1.40324e-16 0)
(3 -6.6634e-16 0)
(3 -6.52384e-16 0)
(3 -2.95162e-16 0)
(3 6.54479e-16 0)
(3 1.46017e-15 0)
(3 8.53963e-16 0)
(3 -1.41039e-16 0)
(3 -4.77077e-16 0)
(3 -1.31983e-15 0)
(3 -1.68971e-15 0)
(3 -1.27835e-15 0)
(3 -5.90969e-16 0)
(3 -9.89458e-16 0)
(3 -2.1362e-15 0)
(3 -2.77104e-15 0)
(3 -2.94418e-15 0)
(3 -2.73175e-15 0)
(3 -2.08249e-15 0)
(3 -2.58213e-15 0)
(3 -1.8918e-15 0)
(3 -1.10302e-15 0)
(3 -6.66755e-16 0)
(3 -8.55066e-17 0)
(3 1.43505e-15 0)
(3 1.72199e-15 0)
(3 1.70715e-15 0)
(3 1.28047e-15 0)
(3 8.8906e-16 0)
(3 3.38647e-16 0)
(3 2.87266e-16 0)
(3 1.73557e-16 0)
(3 -4.86067e-16 0)
(3 -1.06092e-15 0)
(3 -1.14625e-15 0)
(3 -4.45862e-17 0)
(3 5.67484e-16 0)
(3 -4.25046e-15 0)
(1.39003 0.106028 0)
(0.781568 0.0963519 0)
(0.74721 0.0815831 0)
(0.733279 0.0850273 0)
(0.71866 0.0893298 0)
(0.704462 0.0945388 0)
(0.689125 0.0984122 0)
(0.673116 0.0998139 0)
(0.656883 0.0982947 0)
(0.641092 0.0948626 0)
(0.625848 0.0923678 0)
(0.61109 0.0930361 0)
(0.596795 0.0967644 0)
(0.582513 0.101627 0)
(0.567563 0.104946 0)
(0.552025 0.104893 0)
(0.536692 0.101879 0)
(0.521557 0.0995536 0)
(0.506666 0.101095 0)
(0.492153 0.106039 0)
(0.476826 0.110694 0)
(0.460592 0.111199 0)
(0.444298 0.109164 0)
(0.427898 0.110045 0)
(0.412032 0.114191 0)
(0.3959 0.117118 0)
(0.379724 0.117652 0)
(0.363506 0.11894 0)
(0.347065 0.121622 0)
(0.330111 0.123951 0)
(0.312675 0.125311 0)
(0.294891 0.126516 0)
(0.276893 0.128043 0)
(0.258775 0.129795 0)
(0.240522 0.131499 0)
(0.222066 0.132978 0)
(0.203349 0.134298 0)
(0.184362 0.135534 0)
(0.165188 0.1369 0)
(0.145948 0.13847 0)
(0.126756 0.140419 0)
(0.107641 0.142825 0)
(0.0885721 0.146 0)
(0.069391 0.149681 0)
(0.0500747 0.15396 0)
(0.030227 0.156815 0)
(0.0104963 0.16007 0)
(3 5.61144e-17 0)
(3 -6.16466e-17 0)
(3 1.29799e-16 0)
(3 2.09942e-16 0)
(3 4.8106e-16 0)
(3 3.69137e-16 0)
(3 2.58613e-16 0)
(3 1.17093e-16 0)
(3 3.56381e-16 0)
(3 6.70712e-16 0)
(3 -3.72485e-16 0)
(3 -1.29628e-15 0)
(3 -1.19581e-15 0)
(3 -1.53941e-17 0)
(3 -1.05322e-16 0)
(3 6.51602e-17 0)
(3 1.18016e-16 0)
(3 -2.83016e-16 0)
(3 -6.64738e-16 0)
(3 -1.04494e-15 0)
(3 -1.69601e-15 0)
(3 -2.30988e-15 0)
(3 -2.12393e-15 0)
(3 -1.57248e-15 0)
(3 -1.8848e-15 0)
(3 -2.26045e-15 0)
(3 -1.77261e-15 0)
(3 -1.36734e-15 0)
(3 -2.09206e-15 0)
(3 -2.55441e-15 0)
(3 -2.66335e-15 0)
(3 -1.87832e-15 0)
(3 -8.41183e-16 0)
(3 3.12647e-16 0)
(3 1.92453e-15 0)
(3 2.15332e-15 0)
(3 2.55775e-15 0)
(3 2.39376e-15 0)
(3 2.18903e-15 0)
(3 1.3416e-15 0)
(3 6.47537e-16 0)
(3 4.83778e-16 0)
(3 4.3233e-16 0)
(3 -7.95102e-17 0)
(3 -4.87219e-17 0)
(3 -1.49004e-16 0)
(3 -4.13974e-16 0)
(3 3.28949e-16 0)
(3 -4.65359e-15 0)
(1.47784 0.120307 0)
(0.786747 0.112941 0)
(0.748547 0.0946932 0)
(0.733298 0.0965043 0)
(0.718369 0.100538 0)
(0.704242 0.106139 0)
(0.689108 0.110773 0)
(0.673211 0.112911 0)
(0.656964 0.111837 0)
(0.641137 0.108276 0)
(0.625916 0.105155 0)
(0.61125 0.105314 0)
(0.597176 0.108947 0)
(0.583244 0.1142 0)
(0.568619 0.11826 0)
(0.553177 0.118954 0)
(0.537798 0.116165 0)
(0.522623 0.113388 0)
(0.507681 0.11448 0)
(0.493362 0.119476 0)
(0.478442 0.1247 0)
(0.462466 0.125936 0)
(0.44627 0.124179 0)
(0.429858 0.125135 0)
(0.414013 0.129534 0)
(0.397884 0.132841 0)
(0.381625 0.133531 0)
(0.365295 0.13494 0)
(0.348765 0.13791 0)
(0.331726 0.140635 0)
(0.314177 0.142348 0)
(0.296261 0.143876 0)
(0.27814 0.145761 0)
(0.259903 0.147914 0)
(0.241511 0.150014 0)
(0.222874 0.151821 0)
(0.203934 0.153379 0)
(0.184695 0.154758 0)
(0.165252 0.156196 0)
(0.145738 0.157775 0)
(0.126283 0.15969 0)
(0.106937 0.162025 0)
(0.0877148 0.165193 0)
(0.0684946 0.168939 0)
(0.0493262 0.173526 0)
(0.029711 0.176707 0)
(0.010343 0.180423 0)
(3 -1.60295e-16 0)
(3 1.77343e-16 0)
(3 6.90555e-16 0)
(3 1.10769e-15 0)
(3 1.7464e-15 0)
(3 1.69343e-15 0)
(3 1.33184e-15 0)
(3 9.0015e-16 0)
(3 6.14959e-16 0)
(3 1.88354e-16 0)
(3 -1.64643e-16 0)
(3 -1.13079e-17 0)
(3 4.47551e-16 0)
(3 1.5667e-16 0)
(3 1.74806e-18 0)
(3 2.18542e-16 0)
(3 4.20669e-17 0)
(3 -1.10866e-16 0)
(3 -3.98434e-16 0)
(3 -5.59188e-16 0)
(3 -1.06404e-15 0)
(3 -1.72262e-15 0)
(3 -1.68063e-15 0)
(3 -1.66159e-15 0)
(3 -1.2905e-15 0)
(3 -1.10467e-15 0)
(3 -4.46587e-16 0)
(3 -2.90858e-16 0)
(3 -2.2675e-16 0)
(3 -7.1729e-16 0)
(3 -3.41506e-16 0)
(3 4.70356e-16 0)
(3 1.46473e-15 0)
(3 2.86542e-15 0)
(3 3.21204e-15 0)
(3 2.70517e-15 0)
(3 2.60903e-15 0)
(3 1.60197e-15 0)
(3 1.07196e-15 0)
(3 8.53111e-16 0)
(3 5.14243e-16 0)
(3 7.38012e-16 0)
(3 6.18485e-16 0)
(3 3.39348e-16 0)
(3 4.95187e-16 0)
(3 9.24015e-16 0)
(3 8.78203e-16 0)
(3 1.64112e-15 0)
(3 -2.03574e-16 0)
(1.58226 0.134121 0)
(0.793524 0.129473 0)
(0.750375 0.109117 0)
(0.734149 0.108918 0)
(0.718611 0.112214 0)
(0.704214 0.117825 0)
(0.689089 0.123076 0)
(0.673178 0.12596 0)
(0.656824 0.125367 0)
(0.64082 0.121785 0)
(0.625436 0.118017 0)
(0.610655 0.117478 0)
(0.596622 0.120867 0)
(0.582958 0.126462 0)
(0.568684 0.131319 0)
(0.553382 0.132865 0)
(0.537998 0.130506 0)
(0.522842 0.127351 0)
(0.507879 0.127853 0)
(0.493766 0.132727 0)
(0.479379 0.138457 0)
(0.463864 0.140528 0)
(0.448002 0.139159 0)
(0.431866 0.140181 0)
(0.416331 0.14477 0)
(0.40048 0.14847 0)
(0.384371 0.149358 0)
(0.368137 0.150865 0)
(0.351704 0.154086 0)
(0.334764 0.157229 0)
(0.31726 0.159361 0)
(0.299335 0.16127 0)
(0.281171 0.163551 0)
(0.262858 0.166135 0)
(0.244336 0.168663 0)
(0.225509 0.170847 0)
(0.206332 0.172703 0)
(0.18682 0.17429 0)
(0.167067 0.17586 0)
(0.147197 0.17749 0)
(0.127338 0.179381 0)
(0.107563 0.181604 0)
(0.0879415 0.184671 0)
(0.0684114 0.18833 0)
(0.0491227 0.193079 0)
(0.0295041 0.196477 0)
(0.0102791 0.20056 0)
(3 -2.45675e-16 0)
(3 2.19527e-16 0)
(3 3.87583e-16 0)
(3 7.9675e-16 0)
(3 7.07567e-16 0)
(3 7.94882e-16 0)
(3 3.58187e-16 0)
(3 -2.62573e-16 0)
(3 -3.33458e-16 0)
(3 -3.45255e-16 0)
(3 -1.28143e-16 0)
(3 7.02511e-16 0)
(3 7.63706e-16 0)
(3 6.68982e-16 0)
(3 9.71138e-16 0)
(3 6.93702e-16 0)
(3 5.19973e-17 0)
(3 -4.15607e-16 0)
(3 -1.98211e-16 0)
(3 1.4834e-16 0)
(3 -2.92978e-16 0)
(3 -1.3225e-15 0)
(3 -2.0541e-15 0)
(3 -1.66667e-15 0)
(3 -6.48059e-16 0)
(3 1.38458e-15 0)
(3 2.20765e-15 0)
(3 6.23109e-16 0)
(3 3.00082e-16 0)
(3 3.42456e-16 0)
(3 1.31498e-15 0)
(3 1.09305e-15 0)
(3 1.01631e-15 0)
(3 1.39054e-15 0)
(3 1.24785e-15 0)
(3 6.22736e-16 0)
(3 2.45819e-17 0)
(3 -5.87678e-17 0)
(3 1.9286e-16 0)
(3 9.84554e-16 0)
(3 1.23185e-15 0)
(3 1.17276e-15 0)
(3 5.83887e-16 0)
(3 -7.36237e-17 0)
(3 -1.66859e-16 0)
(3 -1.14558e-16 0)
(3 8.15083e-17 0)
(3 2.10488e-16 0)
(3 -5.13656e-15 0)
(1.70642 0.147247 0)
(0.803576 0.145787 0)
(0.752954 0.124143 0)
(0.736241 0.122127 0)
(0.720143 0.124632 0)
(0.705299 0.130027 0)
(0.690037 0.135637 0)
(0.674114 0.139097 0)
(0.657746 0.139067 0)
(0.641577 0.135672 0)
(0.62594 0.131353 0)
(0.610863 0.129956 0)
(0.596637 0.132908 0)
(0.58301 0.138707 0)
(0.568943 0.144343 0)
(0.553657 0.14679 0)
(0.538109 0.145019 0)
(0.522797 0.141575 0)
(0.50761 0.141349 0)
(0.493378 0.145875 0)
(0.479245 0.151975 0)
(0.463998 0.154889 0)
(0.448318 0.153968 0)
(0.43238 0.155024 0)
(0.41713 0.159751 0)
(0.401593 0.163874 0)
(0.385713 0.165043 0)
(0.369702 0.166659 0)
(0.353544 0.170115 0)
(0.336932 0.173714 0)
(0.319725 0.176343 0)
(0.302038 0.178692 0)
(0.284055 0.181398 0)
(0.265864 0.184433 0)
(0.24739 0.18742 0)
(0.228532 0.19003 0)
(0.20926 0.19226 0)
(0.189594 0.194146 0)
(0.169617 0.195937 0)
(0.149434 0.197688 0)
(0.129171 0.199592 0)
(0.108923 0.201696 0)
(0.08882 0.204609 0)
(0.0688642 0.20806 0)
(0.0493075 0.212836 0)
(0.0295353 0.216337 0)
(0.010286 0.220682 0)
(3 -1.20318e-16 0)
(3 -1.01661e-16 0)
(3 1.0583e-16 0)
(3 5.52061e-17 0)
(3 -6.91849e-17 0)
(3 4.92622e-17 0)
(3 -7.25444e-17 0)
(3 -4.81698e-17 0)
(3 -1.21539e-16 0)
(3 -4.42322e-16 0)
(3 -3.3439e-16 0)
(3 -2.09572e-16 0)
(3 1.68195e-16 0)
(3 7.84765e-16 0)
(3 8.5138e-16 0)
(3 7.21403e-16 0)
(3 3.61665e-16 0)
(3 -2.26486e-17 0)
(3 4.49153e-17 0)
(3 5.02112e-17 0)
(3 -3.21786e-16 0)
(3 -1.20037e-15 0)
(3 -2.02952e-15 0)
(3 -1.28821e-15 0)
(3 -6.5426e-16 0)
(3 5.43695e-16 0)
(3 8.68082e-16 0)
(3 6.44607e-16 0)
(3 7.61079e-16 0)
(3 2.06283e-15 0)
(3 1.35808e-15 0)
(3 3.57488e-16 0)
(3 -8.67943e-16 0)
(3 -1.47311e-15 0)
(3 -1.837e-15 0)
(3 -2.0018e-15 0)
(3 -1.91413e-15 0)
(3 -1.61193e-15 0)
(3 -6.69405e-16 0)
(3 -1.78843e-16 0)
(3 1.52086e-16 0)
(3 5.60594e-17 0)
(3 -3.91751e-17 0)
(3 2.83309e-17 0)
(3 9.24777e-17 0)
(3 -3.43714e-16 0)
(3 -3.57951e-16 0)
(3 3.90706e-17 0)
(3 -5.78792e-16 0)
(1.85288 0.15806 0)
(0.81808 0.161526 0)
(0.756216 0.139575 0)
(0.739717 0.135659 0)
(0.723334 0.137425 0)
(0.708228 0.142555 0)
(0.692907 0.148353 0)
(0.67708 0.152199 0)
(0.660897 0.152539 0)
(0.644763 0.149509 0)
(0.62899 0.144928 0)
(0.613595 0.142643 0)
(0.599085 0.145019 0)
(0.585426 0.150938 0)
(0.571565 0.157327 0)
(0.556379 0.160741 0)
(0.540671 0.159735 0)
(0.525168 0.156189 0)
(0.509656 0.155227 0)
(0.495037 0.159262 0)
(0.480839 0.16558 0)
(0.465578 0.169268 0)
(0.449806 0.168807 0)
(0.433795 0.169814 0)
(0.418466 0.174544 0)
(0.40296 0.179033 0)
(0.3871 0.180529 0)
(0.371109 0.182227 0)
(0.355068 0.185872 0)
(0.338718 0.189929 0)
(0.32183 0.19311 0)
(0.304463 0.195936 0)
(0.286778 0.199077 0)
(0.268849 0.202571 0)
(0.250578 0.206054 0)
(0.231841 0.209169 0)
(0.212606 0.21189 0)
(0.19289 0.214214 0)
(0.172766 0.216361 0)
(0.15232 0.218342 0)
(0.131676 0.220332 0)
(0.110951 0.222341 0)
(0.0903335 0.225081 0)
(0.0698795 0.228243 0)
(0.0499275 0.232938 0)
(0.0298484 0.236441 0)
(0.0103827 0.240956 0)
(3 3.89163e-16 0)
(3 2.972e-16 0)
(3 3.77209e-16 0)
(3 4.73446e-16 0)
(3 2.48137e-16 0)
(3 1.50753e-16 0)
(3 6.18907e-16 0)
(3 8.56872e-16 0)
(3 4.59994e-16 0)
(3 5.48342e-16 0)
(3 6.3262e-16 0)
(3 7.17185e-16 0)
(3 1.08398e-15 0)
(3 7.17815e-16 0)
(3 1.06891e-15 0)
(3 1.18885e-15 0)
(3 1.00396e-15 0)
(3 7.48794e-16 0)
(3 -1.60064e-16 0)
(3 -3.73988e-16 0)
(3 -5.19995e-16 0)
(3 -6.88914e-16 0)
(3 -6.17454e-16 0)
(3 -6.22094e-16 0)
(3 -5.25449e-16 0)
(3 -5.03179e-16 0)
(3 -4.55422e-16 0)
(3 3.0071e-16 0)
(3 7.09075e-16 0)
(3 7.58743e-16 0)
(3 -1.20151e-16 0)
(3 -1.68268e-15 0)
(3 -2.21213e-15 0)
(3 -2.32322e-15 0)
(3 -2.23301e-15 0)
(3 -2.60131e-15 0)
(3 -2.38601e-15 0)
(3 -1.97848e-15 0)
(3 -2.0936e-15 0)
(3 -2.04874e-15 0)
(3 -1.67478e-15 0)
(3 -8.34937e-16 0)
(3 -5.68484e-16 0)
(3 -2.9186e-16 0)
(3 3.08901e-16 0)
(3 6.31904e-16 0)
(3 1.17772e-16 0)
(3 8.95931e-16 0)
(3 -2.30064e-15 0)
(2.02101 0.166724 0)
(0.836804 0.177578 0)
(0.758226 0.155277 0)
(0.741979 0.149044 0)
(0.725317 0.150467 0)
(0.709981 0.155439 0)
(0.694623 0.161285 0)
(0.678999 0.165366 0)
(0.663112 0.166054 0)
(0.647256 0.163402 0)
(0.63155 0.158849 0)
(0.616038 0.155764 0)
(0.601287 0.157148 0)
(0.587818 0.162983 0)
(0.574524 0.170027 0)
(0.559908 0.174463 0)
(0.544323 0.174397 0)
(0.528796 0.171016 0)
(0.513136 0.169394 0)
(0.498212 0.172853 0)
(0.483961 0.179276 0)
(0.468704 0.183688 0)
(0.452824 0.183757 0)
(0.436673 0.184717 0)
(0.421105 0.189398 0)
(0.405397 0.194231 0)
(0.389313 0.196128 0)
(0.373084 0.1979 0)
(0.356901 0.201648 0)
(0.340588 0.206084 0)
(0.323853 0.209784 0)
(0.306674 0.213056 0)
(0.289184 0.216589 0)
(0.271448 0.220523 0)
(0.253355 0.224529 0)
(0.234756 0.228226 0)
(0.215616 0.231556 0)
(0.195941 0.234456 0)
(0.175795 0.237089 0)
(0.155237 0.239406 0)
(0.134377 0.241556 0)
(0.113324 0.243516 0)
(0.0922976 0.246106 0)
(0.0713791 0.248956 0)
(0.0509698 0.253518 0)
(0.0304535 0.256965 0)
(0.0105843 0.261597 0)
(3 2.47571e-16 0)
(3 3.88064e-16 0)
(3 3.09275e-17 0)
(3 -1.31457e-16 0)
(3 -3.44541e-16 0)
(3 -3.37597e-16 0)
(3 2.26956e-16 0)
(3 5.01623e-16 0)
(3 7.29151e-16 0)
(3 1.21207e-15 0)
(3 1.46054e-15 0)
(3 1.61374e-15 0)
(3 1.67577e-15 0)
(3 1.15724e-15 0)
(3 7.87982e-16 0)
(3 2.44946e-16 0)
(3 -5.05363e-16 0)
(3 -7.78257e-16 0)
(3 -9.84212e-16 0)
(3 -9.67264e-16 0)
(3 -1.31318e-16 0)
(3 -1.38112e-17 0)
(3 1.96625e-16 0)
(3 -5.452e-16 0)
(3 -1.36686e-15 0)
(3 -1.28726e-15 0)
(3 -1.36667e-15 0)
(3 -9.74925e-16 0)
(3 -1.10952e-15 0)
(3 -2.20095e-15 0)
(3 -2.52907e-15 0)
(3 -2.50038e-15 0)
(3 -1.63276e-15 0)
(3 -1.67253e-15 0)
(3 -1.88957e-15 0)
(3 -2.70148e-15 0)
(3 -2.72253e-15 0)
(3 -1.50739e-15 0)
(3 -1.3265e-15 0)
(3 -1.54466e-15 0)
(3 -1.71509e-15 0)
(3 -1.0483e-15 0)
(3 -7.66328e-16 0)
(3 -4.49341e-16 0)
(3 -4.34533e-16 0)
(3 1.11033e-15 0)
(3 1.28572e-15 0)
(3 2.02302e-15 0)
(3 -1.78053e-15 0)
(2.21268 0.170368 0)
(0.861672 0.194826 0)
(0.759733 0.171392 0)
(0.743688 0.163262 0)
(0.72667 0.164105 0)
(0.711342 0.168816 0)
(0.696256 0.174444 0)
(0.681193 0.178554 0)
(0.665787 0.179519 0)
(0.65006 0.177377 0)
(0.634026 0.173205 0)
(0.617919 0.169554 0)
(0.602373 0.169937 0)
(0.588327 0.174998 0)
(0.575316 0.182435 0)
(0.561398 0.187935 0)
(0.546243 0.188926 0)
(0.531067 0.185961 0)
(0.515761 0.183762 0)
(0.501021 0.186538 0)
(0.487148 0.192928 0)
(0.472241 0.198011 0)
(0.456476 0.198718 0)
(0.440338 0.199699 0)
(0.424639 0.204346 0)
(0.408796 0.209549 0)
(0.392522 0.211944 0)
(0.376097 0.213821 0)
(0.359767 0.21761 0)
(0.343411 0.222339 0)
(0.326681 0.226514 0)
(0.30947 0.230209 0)
(0.291901 0.234096 0)
(0.274081 0.238431 0)
(0.255946 0.242945 0)
(0.237355 0.247239 0)
(0.218277 0.251217 0)
(0.198703 0.254756 0)
(0.178662 0.257953 0)
(0.158159 0.260695 0)
(0.137253 0.263101 0)
(0.116015 0.265106 0)
(0.0946656 0.267636 0)
(0.0732972 0.270235 0)
(0.0523647 0.274676 0)
(0.0312934 0.278057 0)
(0.0108653 0.282793 0)
(3 -1.99204e-16 0)
(3 -4.49189e-16 0)
(3 -2.24401e-16 0)
(3 -3.65273e-16 0)
(3 -6.75148e-16 0)
(3 -5.93429e-16 0)
(3 -6.31974e-17 0)
(3 2.39342e-16 0)
(3 8.56211e-16 0)
(3 8.69186e-16 0)
(3 1.11258e-15 0)
(3 1.15597e-15 0)
(3 9.24228e-16 0)
(3 6.8945e-16 0)
(3 -7.82489e-17 0)
(3 -8.67048e-16 0)
(3 -1.17841e-15 0)
(3 -1.18508e-15 0)
(3 -1.24612e-15 0)
(3 -1.19659e-15 0)
(3 -9.61989e-16 0)
(3 6.82338e-16 0)
(3 1.03583e-15 0)
(3 6.10995e-16 0)
(3 2.3635e-16 0)
(3 -7.94287e-17 0)
(3 -3.92627e-16 0)
(3 -1.79822e-15 0)
(3 -2.61813e-15 0)
(3 -2.36444e-15 0)
(3 -1.2977e-15 0)
(3 1.69382e-16 0)
(3 8.76815e-16 0)
(3 -2.99498e-16 0)
(3 -8.53628e-16 0)
(3 -4.24595e-16 0)
(3 -3.63963e-16 0)
(3 -2.56414e-16 0)
(3 1.78584e-16 0)
(3 1.95053e-16 0)
(3 1.29272e-16 0)
(3 3.75335e-16 0)
(3 3.61389e-16 0)
(3 1.65186e-16 0)
(3 4.24885e-16 0)
(3 7.59117e-16 0)
(3 2.58975e-15 0)
(3 2.5243e-15 0)
(3 2.10724e-15 0)
(2.42764 0.16984 0)
(0.898342 0.214045 0)
(0.767347 0.186691 0)
(0.75237 0.177043 0)
(0.734575 0.178162 0)
(0.718981 0.182314 0)
(0.703854 0.187486 0)
(0.688801 0.191596 0)
(0.673133 0.193152 0)
(0.656743 0.19194 0)
(0.639734 0.188472 0)
(0.622533 0.184708 0)
(0.60583 0.183726 0)
(0.590659 0.187709 0)
(0.577273 0.194867 0)
(0.563708 0.201064 0)
(0.548869 0.203056 0)
(0.533676 0.200721 0)
(0.518352 0.198063 0)
(0.503429 0.200106 0)
(0.489638 0.206426 0)
(0.474975 0.21222 0)
(0.459345 0.213671 0)
(0.443425 0.214689 0)
(0.427937 0.219263 0)
(0.412507 0.224817 0)
(0.396491 0.227761 0)
(0.380217 0.229828 0)
(0.363903 0.233691 0)
(0.347469 0.238738 0)
(0.33057 0.243455 0)
(0.313091 0.247645 0)
(0.295193 0.251899 0)
(0.27708 0.256575 0)
(0.258776 0.261506 0)
(0.240154 0.266297 0)
(0.221168 0.270846 0)
(0.201756 0.274996 0)
(0.181888 0.278789 0)
(0.161495 0.28205 0)
(0.140583 0.284849 0)
(0.119173 0.287059 0)
(0.0974917 0.289682 0)
(0.0756283 0.292149 0)
(0.0540851 0.296526 0)
(0.0323412 0.299858 0)
(0.0112166 0.304703 0)