/*--------------------------------*- C++ -*----------------------------------*\
  =========                 |
  \\      /  F ield         | OpenFOAM: The Open Source CFD Toolbox
   \\    /   O peration     | Website:  https://openfoam.org
    \\  /    A nd           | Version:  7
     \\/     M anipulation  |
\*---------------------------------------------------------------------------*/
FoamFile
{
    version     2.0;
    format      ascii;
    class       volScalarField;
    location    "0.3";
    object      p;
}
// * * * * * * * * * * * * * * * * * * * * * * * * * * * * * * * * * * * * * //

dimensions      [1 -1 -2 0 0 0 0];

internalField   nonuniform List<scalar> 
4032
(
1
1
1
1
1
1
1
1
1
1
1
1
1
1
1
1
6.03858
11.6622
11.6868
11.9698
12.179
12.1552
11.9128
11.6685
1
1
1
1
1
1
1
1
1
1
1
1
1
1
1
1
5.8062
11.5283
11.688
11.9389
12.1253
12.1007
11.8588
11.6374
1
1
1
1
1
1
1
1
1
1
1
1
1
1
1
1
5.31859
11.3631
11.6265
11.8393
12.0086
12.0085
11.7964
11.619
1
1
1
1
1
1
1
1
1
1
1
1
1
1
1
1
4.64005
11.0786
11.524
11.693
11.8684
11.9027
11.7268
11.5832
1
1
1
1
1
1
1
1
1
1
1
1
1
1
1
1
3.82609
10.6116
11.3614
11.4291
11.7099
11.7643
11.6114
11.52
1
1
1
1
1
1
1
1
1
1
1
1
1
1
1
1
2.65993
9.77503
11.3342
11.2251
11.532
11.5946
11.4629
11.3186
1
1
1
1
1
1
1
1
1
1
1
1
1
1
1
1
1.51855
8.2912
11.2373
11.0545
11.2445
11.2035
10.9882
10.9652
1
1
1
1
1
1
1
1
1
1
1
1
1
1
1
1
1.02182
6.17817
10.8395
10.7735
10.8832
10.7628
10.5278
10.6329
1
1
1
1
1
1
1
1
1
1
1
1
1
1
1
1
1.00008
3.7557
10.1393
10.5571
10.4162
10.1342
9.33362
7.38854
1
1
1
1
1
1
1
1
1
1
1
1
1
1
1
1
1
1.72649
8.40189
10.3143
9.90537
9.44372
8.4306
6.49425
1
1
1
1
1
1
1
1
1
1
1
1
1
1
1
1
1
1.03264
5.49079
9.74266
9.53057
9.01512
7.90874
6.12962
1
1
1
1
1
1
1
1
1
1
1
1
1
1
1
1
1
1.00012
2.21816
8.36667
9.40764
8.67472
7.65796
6.1122
1
1
1
1
1
1
1
1
1
1
1
1
1
1
1
1
1
1
1.0737
4.87016
8.93546
8.64006
7.57986
6.22959
1
1
1
1
1
1
1
1
1
1
1
1
1
1
1
1
1
1
1.00044
1.6828
6.71297
8.57648
7.67896
6.39916
1
1
1
1
1
1
1
1
1
1
1
1
1
1
1
1
1
1
1
1.02296
2.77156
7.43901
7.81526
6.77212
1
1
1
1
1
1
1
1
1
1
1
1
1
1
1
1
1
1
1
1.00008
1.1384
3.76856
7.14501
7.02317
1
1
1
1
1
1
1
1
1
1
1
1
1
1
1
1
1
1
1
1
1.00141
1.33898
4.15016
6.39972
1
1
1
1
1
1
1
1
1
1
1
1
1
1
1
1
1
1
1
1
1
1.00619
1.48785
3.86861
1
1
1
1
1
1
1
1
1
1
1
1
1
1
1
1
1
1
1
1
1
1.00001
1.01179
1.45572
1
1
1
1
1
1
1
1
1
1
1
1
1
1
1
1
1
1
1
1
1
1
1.00003
1.01082
1
1
1
1
1
1
1
1
1
1
1
1
1
1
1
1
1
1
1
1
1
1
1
1.00003
1
1
1
1
1
1
1
1
1
1
1
1
1
1
1
1
1
1
1
1
1
1
1
1
1
1
1
1
1
1
1
1
1
1
1
1
1
1
1
1
1
1
1
1
1
1
1
1
1
1
1
1
1
1
1
1
1
1
1
1
1
1
1
1
1
1
1
1
1
1
1
1
1
1
1
1
1
1
1
1
1
1
1
1
1
1
1
1
1
1
1
1
1
1
1
1
1
1
1
1
1
1
1
1
1
1
1
1
1
1
1
1
1
1
1
1
1
1
1
1
1
1
1
1
1
1
1
1
1
1
1
1
1
1
1
1
1
1
1
1
1
1
1
1
1
1
1
1
1
1
1
1
1
1
1
1
1
1
1
1
1
1
1
1
1
1
1
1
1
1
1
1
1
1
1
1
1
1
1
1
1
1
1
1
1
1
1
1
1
1
1
1
1
1
1
1
1
1
1
1
1
1
1
1
1
1
1
1
1
1
1
1
1
1
1
1
1
1
1
1
1
1
1
1
1
1
1
1
1
1
1
1
1
1
1
1
1
1
1
1
1
1
1
1
1
1
1
1
1
1
1
1
1
1
1
1
1
1
1
1
1
1
1
1
1
1
1
1
1
1
1
1
1
1
1
1
1
1
1
1
1
1
1
1
1
1
1
1
1
1
1
1
1
1
1
1
1
1
1
1
1
1
1
1
1
1
1
1
1
1
1
1
1
1
1
1
1
1
1
1
1
1
1
1
1
1
1
1
1
1
1
1
1
1
1
1
1
1
1
1
1
1
1
1
1
1
1
1
1
1
1
1
1
1
1
1
1
1
1
1
1
1
1
1
1
1
1
1
1
1
1
1
1
1
1
1
1
1
1
1
1
1
1
1
1
1
1
1
1
1
1
1
1
1
1
1
1
1
1
1
1
1
1
1
1
1
1
1
1
1
1
1
1
1
1
1
1
1
1
1
1
1
1
1
1
1
1
1
1
1
1
1
1
1
1
1
1
1
1
1
1
1
1
1
1
1
1
1
1
1
1
1
1
1
1
1
1.67542
0.511027
0.324112
0.254637
0.248821
0.337096
0.521296
0.715574
0.883843
0.948887
0.954908
0.950565
0.949692
0.92767
0.894727
0.871695
0.845462
0.827039
0.828869
0.858434
0.868903
0.86814
0.860313
0.858171
0.863114
0.87043
0.88518
0.912607
0.946373
0.970768
0.97686
0.962812
0.947945
0.956166
0.972627
0.988385
1.00526
1.02514
1.04407
1.05057
1.05028
1.04916
1.04699
1.04227
1.03193
1.01413
1.00189
1.00003
1
1
1
1
1
1
1
1
1
1
1
1
1
1
1
1
1
1
1
1
1
1
1
1
1
1
1
1
1
1
1
1
1
1
1
1
1
1
1
1
1
1
1
1
1
1
1
1
2.92587
1.47089
1.10045
0.884651
0.67477
0.624076
0.634631
0.653728
0.703422
0.764562
0.802138
0.822387
0.837223
0.835494
0.829805
0.828225
0.820981
0.813069
0.825844
0.849791
0.856714
0.858869
0.861691
0.869737
0.881547
0.895267
0.914283
0.938902
0.959521
0.9689
0.965642
0.94206
0.923121
0.935548
0.960463
0.987511
1.00868
1.0231
1.03759
1.04895
1.05078
1.05021
1.04853
1.04421
1.03171
1.01204
1.00121
1.00001
1
1
1
1
1
1
1
1
1
1
1
1
1
1
1
1
1
1
1
1
1
1
1
1
1
1
1
1
1
1
1
1
1
1
1
1
1
1
1
1
1
1
1
1
1
1
1
1
3.87735
2.45681
1.71356
1.40089
1.10718
0.865258
0.787525
0.707845
0.659006
0.687134
0.746411
0.783878
0.803767
0.803857
0.80025
0.807188
0.818603
0.832889
0.855536
0.872415
0.878974
0.881363
0.884722
0.894119
0.908888
0.929402
0.955645
0.980484
0.993392
0.992319
0.98101
0.961981
0.946717
0.9466
0.958659
0.98077
1.003
1.02521
1.04419
1.05272
1.05369
1.0537
1.05199
1.04473
1.02812
1.00785
1.00044
1
1
1
1
1
1
1
1
1
1
1
1
1
1
1
1
1
1
1
1
1
1
1
1
1
1
1
1
1
1
1
1
1
1
1
1
1
1
1
1
1
1
1
1
1
1
1
1
1
4.4961
3.26595
2.36981
1.91092
1.55723
1.19435
1.04347
0.95426
0.848954
0.769937
0.75457
0.751792
0.738553
0.717278
0.710102
0.731009
0.769357
0.804543
0.828584
0.841539
0.847312
0.850762
0.859581
0.882661
0.915633
0.946557
0.969392
0.980583
0.978461
0.965221
0.948929
0.943324
0.951498
0.962577
0.968946
0.975199
0.989573
1.01774
1.04861
1.05923
1.06056
1.06088
1.05821
1.04592
1.02155
1.0032
1.00006
1
0.999999
0.999999
1
1
1
1
1
1
1
1
1
1
1
1
1
1
1
1
1
1
1
1
1
1
1
1
1
1
1
1
1
1
1
1
1
1
1
1
1
1
1
1
1
1
1
1
1
1
4.91554
3.8268
2.93237
2.3589
1.96171
1.59204
1.34992
1.19906
1.03769
0.885679
0.80588
0.795399
0.760335
0.710709
0.696403
0.712801
0.743298
0.769059
0.785933
0.79755
0.805157
0.809125
0.811327
0.818065
0.834803
0.858003
0.882286
0.901282
0.908683
0.905123
0.902554
0.909945
0.928544
0.951655
0.972639
0.987198
0.998703
1.02249
1.05515
1.06664
1.06812
1.06847
1.06408
1.04247
1.01217
1.00069
1
0.999999
0.999999
0.999999
1
1
1
1
1
1
1
1
1
1
1
1
1
1
1
1
1
1
1
1
1
1
1
1
1
1
1
1
1
1
1
1
1
1
1
1
1
1
1
1
1
1
1
1
1
1
5.24096
4.26632
3.39786
2.79817
2.3526
1.9267
1.6711
1.51162
1.34021
1.10774
0.967446
0.952971
0.914942
0.834727
0.790441
0.793507
0.798753
0.778613
0.757564
0.748836
0.756217
0.763464
0.759486
0.749944
0.750408
0.767147
0.794525
0.822553
0.840828
0.847354
0.852645
0.865091
0.889593
0.921188
0.952353
0.981674
1.01188
1.04864
1.07596
1.08114
1.08215
1.08096
1.06525
1.02901
1.00357
1.00005
0.999999
0.999999
0.999999
1
1
1
1
1
1
1
1
1
1
1
1
1
1
1
1
1
1
1
1
1
1
1
1
1
1
1
1
1
1
1
1
1
1
1
1
1
1
1
1
1
1
1
1
1
1
1
5.49306
4.63489
3.82618
3.1657
2.7431
2.33598
1.97014
1.78864
1.61354
1.38068
1.19952
1.14811
1.08256
0.974492
0.87683
0.862471
0.856821
0.813797
0.762514
0.743126
0.749078
0.755029
0.745575
0.735174
0.735775
0.746546
0.762231
0.779773
0.801731
0.82786
0.855288
0.881059
0.899619
0.918557
0.945998
0.979521
1.02778
1.07974
1.09856
1.10139
1.10239
1.0923
1.05202
1.01014
1.00029
1
0.999999
0.999999
1
1
1
1
1
1
1
1
1
1
1
1
1
1
1
1
1
1
1
1
1
1
1
1
1
1
1
1
1
1
1
1
1
1
1
1
1
1
1
1
1
1
1
1
1
1
1
1
6.07221
5.03497
4.20977
3.51898
3.08214
2.6978
2.31678
2.08741
1.88825
1.60475
1.4152
1.36776
1.29084
1.16997
1.03539
0.978301
0.961818
0.916721
0.851598
0.822574
0.813525
0.78524
0.7454
0.719252
0.708917
0.707925
0.714146
0.727504
0.747912
0.778161
0.818259
0.869175
0.919315
0.956762
0.991521
1.0361
1.09481
1.1279
1.13334
1.1351
1.1233
1.07557
1.01832
1.00075
1
0.999999
0.999999
1
1
1
1
1
1
1
1
1
1
1
1
1
1
1
1
1
1
1
1
1
1
1
1
1
1
1
1
1
1
1
1
1
1
1
1
1
1
1
1
1
1
1
1
1
1
1
1
1
6.251
5.64249
4.80786
3.96293
3.41112
3.05579
2.64325
2.31257
2.1331
1.88584
1.65116
1.56906
1.481
1.34736
1.18772
1.11032
1.0844
1.03882
0.961542
0.911595
0.875735
0.827349
0.781065
0.754061
0.73586
0.724143
0.717938
0.724864
0.745351
0.774059
0.812875
0.864615
0.931248
1.00042
1.06388
1.13032
1.17561
1.18451
1.18565
1.15964
1.09305
1.02254
1.001
1
0.999999
1
1
1
1
1
1
1
1
1
1
1
1
1
1
1
1
1
1
1
1
1
1
1
1
1
1
1
1
1
1
1
1
1
1
1
1
1
1
1
1
1
1
1
1
1
1
1
1
1
1
1
5.58879
5.69618
5.35471
4.67597
3.93527
3.42244
3.00458
2.58397
2.33369
2.11942
1.89009
1.77722
1.67287
1.51709
1.3264
1.23771
1.21435
1.17494
1.10004
1.0363
0.984006
0.931369
0.900582
0.887976
0.880673
0.870615
0.861163
0.86119
0.873886
0.89933
0.939972
0.996769
1.0678
1.14275
1.20987
1.24882
1.25756
1.24528
1.18867
1.09959
1.02104
1.00081
1
1
1
1
1
1
1
1
1
1
1
1
1
1
1
1
1
1
1
1
1
1
1
1
1
1
1
1
1
1
1
1
1
1
1
1
1
1
1
1
1
1
1
1
1
1
1
1
1
1
1
1
1
1
3.15246
4.94484
5.10708
4.86676
4.48848
3.99793
3.50703
3.0428
2.65624
2.38107
2.14353
1.98838
1.86426
1.6888
1.4709
1.39013
1.3682
1.3251
1.24538
1.16493
1.09864
1.05376
1.03205
1.02112
1.00945
0.995731
0.989254
0.996148
1.01683
1.05669
1.11685
1.19063
1.26523
1.32129
1.34238
1.33643
1.28813
1.20381
1.09186
1.01477
1.00041
1
1
1
1
1
1
1
1
1
1
1
1
1
1
1
1
1
1
1
1
1
1
1
1
1
1
1
1
1
1
1
1
1
1
1
1
1
1
1
1
1
1
1
1
1
1
1
1
1
1
1
1
1
1
1
1.27853
2.53453
3.89942
4.46087
4.40061
4.27384
3.98661
3.61036
3.21531
2.84466
2.55443
2.3355
2.15638
1.93806
1.69521
1.61105
1.58243
1.53642
1.44736
1.35078
1.2914
1.26198
1.24801
1.23817
1.23029
1.22559
1.23199
1.24827
1.27704
1.32072
1.37204
1.41365
1.43028
1.42321
1.38251
1.31319
1.20161
1.06916
1.00739
1.00013
1
1
1
1
1
1
1
1
1
1
1
1
1
1
1
1
1
1
1
1
1
1
1
1
1
1
1
1
1
1
1
1
1
1
1
1
1
1
1
1
1
1
1
1
1
1
1
1
1
1
1
1
1
1
1
1
1.00519
1.13059
1.81863
2.81407
3.65776
3.96334
3.87102
3.66801
3.5236
3.34383
3.11359
2.86563
2.62697
2.35957
2.11898
2.00588
1.94071
1.87603
1.77362
1.66627
1.62202
1.59418
1.56964
1.55195
1.54107
1.53512
1.53283
1.53197
1.53131
1.52728
1.51503
1.49187
1.45692
1.40744
1.31521
1.16603
1.03975
1.00251
1.00002
1
1
1
1
1
1
1
1
1
1
1
1
1
1
1
1
1
1
1
1
1
1
1
1
1
1
1
1
1
1
1
1
1
1
1
1
1
1
1
1
1
1
1
1
1
1
1
1
1
1
1
1
1
1
1
1
1
1.00001
1.00142
1.03892
1.27277
1.91607
2.75862
3.22685
3.36254
3.34225
3.2877
3.1866
3.04581
2.88307
2.7085
2.56435
2.45935
2.36463
2.26763
2.15933
2.06112
1.99187
1.93125
1.8741
1.82391
1.77965
1.73608
1.6901
1.64342
1.59911
1.55923
1.52136
1.47437
1.39608
1.26252
1.10369
1.01549
1.00052
1
1
1
1
1
1
1
1
1
1
1
1
1
1
1
1
1
1
1
1
1
1
1
1
1
1
1
1
1
1
1
1
1
1
1
1
1
1
1
1
1
1
1
1
1
1
1
1
1
1
1
1
1
1
1
1
1
1
1
1
1
1.0002
1.00579
1.06295
1.29778
1.77948
2.29217
2.68275
2.89016
2.94877
2.89693
2.78817
2.67533
2.58627
2.51239
2.4339
2.34386
2.24936
2.16022
2.07798
2.00143
1.93103
1.86804
1.81034
1.755
1.69879
1.63995
1.57994
1.51412
1.4283
1.30657
1.15632
1.04074
1.00349
1.00006
1
1
1
1
1
1
1
1
1
1
1
1
1
1
1
1
1
1
1
1
1
1
1
1
1
1
1
1
1
1
1
1
1
1
1
1
1
1
1
1
1
1
1
1
1
1
1
1
1
1
1
1
1
1
1
1
1
1
1
1
1
1
1
1.00001
1.00047
1.00691
1.05201
1.19525
1.47398
1.79383
2.07746
2.26971
2.37554
2.40586
2.40381
2.36758
2.31398
2.25302
2.18426
2.10896
2.03137
1.95522
1.88292
1.81404
1.74487
1.67042
1.58711
1.49448
1.39058
1.273
1.14997
1.05219
1.00821
1.00038
1
1
1
1
1
1
1
1
1
1
1
1
1
1
1
1
1
1
1
1
1
1
1
1
1
1
1
1
1
1
1
1
1
1
1
1
1
1
1
1
1
1
1
1
1
1
1
1
1
1
1
1
1
1
1
1
1
1
1
1
1
1
1
1
1
1
1
1.00001
1.00038
1.00388
1.02158
1.06963
1.16079
1.30016
1.46775
1.62369
1.71683
1.7681
1.79354
1.7962
1.77845
1.74318
1.69189
1.63057
1.56402
1.49248
1.41447
1.33033
1.24368
1.15993
1.08654
1.03358
1.00742
1.00067
1.00002
1
1
1
1
1
1
1
1
1
1
1
1
1
1
1
1
1
1
1
1
1
1
1
1
1
1
1
1
1
1
1
1
1
1
1
1
1
1
1
1
1
1
1
1
1
1
1
1
1
1
1
1
1
1
1
1
1
1
1
1
1
1
1
1
1
1
1
1
1
1
1.00001
1.00009
1.00062
1.00295
1.01076
1.02949
1.05975
1.09054
1.12002
1.14651
1.1667
1.1761
1.1731
1.16235
1.14388
1.12004
1.09314
1.0658
1.0411
1.02165
1.00882
1.00237
1.00033
1.00002
1
1
1
1
1
1
1
1
1
1
1
1
1
1
1
1
1
1
1
1
1
1
1
1
1
1
1
1
1
1
1
1
1
1
1
1
1
1
1
1
1
1
1
1
1
1
1
1
1
1
1
1
1
1
1
1
1
1
1
1
1
1
1
1
1
1
1
1
1
1
1
1
1
1
1
1
1.00003
1.00018
1.00058
1.00125
1.00226
1.00356
1.00496
1.00594
1.00607
1.00579
1.005
1.00379
1.00246
1.00133
1.00057
1.00018
1.00003
1
1
1
1
1
1
1
1
1
1
1
1
1
1
1
1
1
1
1
1
1
1
1
1
1
1
1
1
1
1
1
1
1
1
1
1
1
1
1
1
1
1
1
1
1
1
1
1
1
1
1
1
1
1
1
1
1
1
1
1
1
1
1
1
1
1
1
1
1
1
1
1
1
1
1
1
1
1
1
1
1
1
1
1
1.00001
1.00001
1.00002
1.00002
1.00002
1.00001
1.00001
1
1
1
1
1
1
1
1
1
1
1
1
1
1
1
1
1
1
1
1
1
1
1
1
1
1
1
1
1
1
1
1
1
1
1
1
1
1
1
1
1
1
1
1
1
1
1
1
1
1
1
1
1
1
1
1
1
1
1
1
1
1
1
1
1
1
1
1
1
1
1
1
1
1
1
1
1
1
1
1
1
1
1
1
1
1
1
1
1
1
1
1
1
1
1
1
1
1
1
1
1
1
1
1
1
1
1
1
1
1
1
1
1
1
1
1
1
1
1
1
1
1
1
1
1
1
1
1
1
1
1
1
1
1
1
1
1
1
1
1
1
1
1
1
1
1
1
1
1
1
1
1
1
1
1
1
1
1
1
1
1
1
1
1
1
1
1
1
1
1
1
1
1
1
1
1
1
1
1
1
1
1
1
1
1
1
1
1
1
1
1
1
1
1
1
1
1
1
1
1
1
1
1
1
1
1
1
1
1
1
1
1
1
1
1
1
1
1
1
1
1
1
1
1
1
1
1
1
1
1
1
1
1
1
1
1
1
1
1
1
1
1
1
1
1
1
1
1
1
1
1
1
1
1
1
1
1
1
1
1
1
1
1
1
1
1
1
1
1
1
1
1
1
1
1
1
1
1
1
1
1
1
1
1
1
1
1
1
1
1
1
1
1
1
1
1
1
1
1
1
1
1
1
1
1
1
1
1
1
1
1
1
1
1
1
1
1
1
1
1
1
1
1
1
1
1
1
1
1
1
1
1
1
1
1
1
1
1
1
1
1
1
1
1
1
1
1
1
1
1
1
1
1
1
1
1
1
1
1
1
1
1
1
1
1
1
1
1
1
1
1
1
1
1
1
1
1
1
1
1
1
1
1
1
1
1
1
1
1
1
1
1
1
1
1
1
1
1
1
1
1
1
1
1
1
1
1
1
1
1
1
1
1
1
1
1
1
1
1
1
1
1
1
1
1
1
1
1
1
1
1
1
1
1
1
1
1
1
1
1
1
1
1
1
1
1
1
1
1
1
1
1
1
1
1
1
1
1
1
1
1
1
1
1
1
1
1
1
1
1
1
1
1
1
1
1
1
1
1
1
1
1
1
1
1
1
1
1
1
1
1
1
1
1
1
1
1
1
1
1
1
1
1
1
1
1
1
1
1
1
1
1
1
1
1
1
1
1
1
1
1
1
1
1
1
1
1
1
1
1
1
1
1
1
1
1
1
1
1
1
1
1
1
1
1
1
1
1
1
1
1
1
1
1
1
1
1
1
1
1
1
1
1
1
1
1
1
1
1
1
1
1
1
1
1
1
1
1
1
1
1
1
1
1
1
1
1
1
1
1
1
1
1
1
1
1
1
1
1
1
1
1
1
1
1
1
1
1
1
1
1
1
1
1
1
1
1
1
1
1
1
1
1
1
1
1
1
1
1
1
1
1
1
1
1
1
1
1
1
1
1
1
1
1
1
1
1
1
1
1
1
1
1
1
1
1
1
1
1
1
1
1
1
1
1
1
1
1
1
1
1
1
1
1
1
1
1
1
1
1
1
1
1
1
1
1
1
1
1
1
1
1
1
1
1
1
1
1
1
1
1
1
1
1
1
1
1
1
1
1
1
1
1
1
1
1
1
1
1
1
1
1
1
1
1
1
1
1
1
1
1
1
1
1
1
1
1
1
1
1
1
1
1
1
1
1
1
1
1
1
1
1
1
1
1
1
1
1
1
1
1
1
1
1
1
1
1
1
1
1
1
1
1
1
1
1
1
1
1
1
1
1
1
1
1
1
1
1
1
1
1
1
1
1
1
1
1
1
1
1
1
1
1
1
1
1
1
1
1
1
1
1
1
1
1
1
1
1
1
1
1
1
1
1
1
1
1
1
1
1
1
1
1
1
1
1
1
1
1
1
1
1
1
1
1
1
1
1
1
1
1
1
1
1
1
1
1
1
1
1
1
1
1
1
1
1
1
1
1
1
1
1
1
1
1
1
1
1
1
1
1
1
1
1
1
1
1
1
1
1
1
1
1
1
1
1
1
1
1
1
1
1
1
1
1
1
1
1
1
1
1
1
1
1
1
1
1
1
1
1
1
1
1
1
1
1
1
1
1
1
1
1
1
1
1
1
1
1
1
1
1
1
1
1
1
1
1
1
1
1
1
1
1
1
1
1
1
1
1
1
1
1
1
1
1
1
1
1
1
1
1
1
1
1
1
1
1
1
1
1
1
1
1
1
1
1
1
1
1
1
1
1
1
1
1
1
1
1
1
1
1
1
1
1
1
1
1
1
1
1
1
1
1
1
1
1
1
1
1
1
1
1
1
1
1
1
1
1
1
1
1
1
1
1
1
1
1
1
1
1
1
1
1
1
1
1
1
1
1
1
1
1
1
1
1
1
1
1
1
1
1
1
1
1
1
1
1
1
1
1
1
1
1
1
1
1
1
1
1
1
1
1
1
1
1
1
1
1
1
1
1
1
1
1
1
1
1
1
1
1
1
1
1
1
1
1
1
1
1
1
1
1
1
1
1
1
1
1
1
1
1
1
1
1
1
1
1
1
1
1
1
1
1
1
1
1
1
1
1
1
1
1
1
1
1
1
1
1
1
1
1
1
1
1
1
1
1
1
1
1
1
1
1
1
1
1
1
1
1
1
1
1
1
1
1
1
1
1
1
1
1
1
1
1
1
1
1
1
1
1
1
1
1
1
1
1
1
1
1
1
1
1
1
1
1
1
1
1
1
1
1
1
1
1
1
1
1
1
1
1
1
1
1
1
1
)
;

boundaryField
{
    inlet
    {
        type            fixedValue;
        value           uniform 1;
    }
    outlet
    {
        type            zeroGradient;
    }
    bottom
    {
        type            symmetryPlane;
    }
    top
    {
        type            symmetryPlane;
    }
    obstacle
    {
        type            zeroGradient;
    }
    defaultFaces
    {
        type            empty;
    }
}


// ************************************************************************* //
