/*--------------------------------*- C++ -*----------------------------------*\
  =========                 |
  \\      /  F ield         | OpenFOAM: The Open Source CFD Toolbox
   \\    /   O peration     | Website:  https://openfoam.org
    \\  /    A nd           | Version:  7
     \\/     M anipulation  |
\*---------------------------------------------------------------------------*/
FoamFile
{
    version     2.0;
    format      ascii;
    class       volScalarField;
    location    "0.3";
    object      T;
}
// * * * * * * * * * * * * * * * * * * * * * * * * * * * * * * * * * * * * * //

dimensions      [0 0 0 1 0 0 0];

internalField   nonuniform List<scalar> 
4032
(
1
1
1
1
1
1
1
1
1
1
1
1
1
1
1
1
2.2307
2.88094
3.09892
3.34344
3.496
3.52187
3.48424
3.44098
1
1
1
1
1
1
1
1
1
1
1
1
1
1
1
1
2.20569
2.8742
3.10563
3.34419
3.49081
3.51616
3.47896
3.43825
1
1
1
1
1
1
1
1
1
1
1
1
1
1
1
1
2.14581
2.86163
3.10059
3.32761
3.47193
3.50418
3.4716
3.43652
1
1
1
1
1
1
1
1
1
1
1
1
1
1
1
1
2.05191
2.83252
3.07623
3.28259
3.4362
3.48625
3.46168
3.4327
1
1
1
1
1
1
1
1
1
1
1
1
1
1
1
1
1.92044
2.7771
3.02513
3.20109
3.38366
3.45997
3.44489
3.42427
1
1
1
1
1
1
1
1
1
1
1
1
1
1
1
1
1.65828
2.66237
2.95064
3.11051
3.32247
3.4256
3.42027
3.39836
1
1
1
1
1
1
1
1
1
1
1
1
1
1
1
1
1.25112
2.47028
2.86774
3.03251
3.24889
3.36476
3.3674
3.36202
1
1
1
1
1
1
1
1
1
1
1
1
1
1
1
1
1.00934
2.23783
2.7915
2.96183
3.15751
3.28184
3.32483
3.36655
1
1
1
1
1
1
1
1
1
1
1
1
1
1
1
1
1.00002
1.87607
2.69455
2.9031
3.03989
3.15145
3.17748
3.1045
1
1
1
1
1
1
1
1
1
1
1
1
1
1
1
1
1
1.32342
2.4935
2.82302
2.89823
2.99339
3.00974
2.91461
1
1
1
1
1
1
1
1
1
1
1
1
1
1
1
1
1
1.01415
2.15566
2.69199
2.78512
2.85841
2.85163
2.74895
1
1
1
1
1
1
1
1
1
1
1
1
1
1
1
1
1
1.00004
1.4779
2.45334
2.72232
2.72119
2.71711
2.64256
1
1
1
1
1
1
1
1
1
1
1
1
1
1
1
1
1
1
1.03183
2.013
2.58253
2.64729
2.61832
2.54951
1
1
1
1
1
1
1
1
1
1
1
1
1
1
1
1
1
1
1.00015
1.27682
2.24123
2.57331
2.53138
2.46043
1
1
1
1
1
1
1
1
1
1
1
1
1
1
1
1
1
1
1
1.00932
1.58916
2.32629
2.47796
2.40676
1
1
1
1
1
1
1
1
1
1
1
1
1
1
1
1
1
1
1
1.00003
1.05844
1.7844
2.29861
2.3539
1
1
1
1
1
1
1
1
1
1
1
1
1
1
1
1
1
1
1
1
1.00049
1.14063
1.83401
2.19558
1
1
1
1
1
1
1
1
1
1
1
1
1
1
1
1
1
1
1
1
1
1.00231
1.19525
1.76927
1
1
1
1
1
1
1
1
1
1
1
1
1
1
1
1
1
1
1
1
1
1
1.00449
1.18027
1
1
1
1
1
1
1
1
1
1
1
1
1
1
1
1
1
1
1
1
1
1
1.00001
1.00404
1
1
1
1
1
1
1
1
1
1
1
1
1
1
1
1
1
1
1
1
1
1
1
1.00001
1
1
1
1
1
1
1
1
1
1
1
1
1
1
1
1
1
1
1
1
1
1
1
1
1
1
1
1
1
1
1
1
1
1
1
1
1
1
1
1
1
1
1
1
1
1
1
1
1
1
1
1
1
1
1
1
1
1
1
1
1
1
1
1
1
1
1
1
1
1
1
1
1
1
1
1
1
1
1
1
1
1
1
1
1
1
1
1
1
1
1
1
1
1
1
1
1
1
1
1
1
1
1
1
1
1
1
1
1
1
1
1
1
1
1
1
1
1
1
1
1
1
1
1
1
1
1
1
1
1
1
1
1
1
1
1
1
1
1
1
1
1
1
1
1
1
1
1
1
1
1
1
1
1
1
1
1
1
1
1
1
1
1
1
1
1
1
1
1
1
1
1
1
1
1
1
1
1
1
1
1
1
1
1
1
1
1
1
1
1
1
1
1
1
1
1
1
1
1
1
1
1
1
1
1
1
1
1
1
1
1
1
1
1
1
1
1
1
1
1
1
1
1
1
1
1
1
1
1
1
1
1
1
1
1
1
1
1
1
1
1
1
1
1
1
1
1
1
1
1
1
1
1
1
1
1
1
1
1
1
1
1
1
1
1
1
1
1
1
1
1
1
1
1
1
1
1
1
1
1
1
1
1
1
1
1
1
1
1
1
1
1
1
1
1
1
1
1
1
1
1
1
1
1
1
1
1
1
1
1
1
1
1
1
1
1
1
1
1
1
1
1
1
1
1
1
1
1
1
1
1
1
1
1
1
1
1
1
1
1
1
1
1
1
1
1
1
1
1
1
1
1
1
1
1
1
1
1
1
1
1
1
1
1
1
1
1
1
1
1
1
1
1
1
1
1
1
1
1
1
1
1
1
1
1
1
1
1
1
1
1
1
1
1
1
1
1
1
1
1
1
1
1
1
1
1
1
1
1
1
1
1
1
1
1
1
1
1
1
1
1
1
1
1
1
1
1
1
1
1
1
1
1
1
1
1
1
1
1
1
1
1
1
1
1
1
1
1
1
1
1
1
1
1
1
1
2.14709
1.53043
1.49288
1.53655
1.5183
1.62706
1.77451
1.89859
2.05797
2.11452
2.10359
2.06926
2.01869
1.94426
1.86304
1.80736
1.7637
1.73418
1.7279
1.73953
1.74832
1.74874
1.73825
1.71655
1.67974
1.61956
1.54143
1.45979
1.38021
1.29403
1.19101
1.08154
1.01123
0.993599
0.992629
0.993271
0.996382
1.00293
1.0103
1.01301
1.01304
1.01306
1.01301
1.01226
1.00955
1.00426
1.00056
1.00001
1
1
1
1
1
1
1
1
1
1
1
1
1
1
1
1
1
1
1
1
1
1
1
1
1
1
1
1
1
1
1
1
1
1
1
1
1
1
1
1
1
1
1
1
1
1
1
1
2.43588
2.04113
1.93803
1.85916
1.7238
1.65966
1.66171
1.67957
1.74881
1.84277
1.87844
1.87252
1.84728
1.79982
1.75728
1.72947
1.70163
1.67725
1.67576
1.68754
1.69719
1.69896
1.69486
1.67937
1.64589
1.58989
1.51573
1.43396
1.34968
1.26079
1.16273
1.0625
1.00076
0.98809
0.988401
0.991871
0.997193
1.00249
1.0084
1.01268
1.01345
1.01345
1.01341
1.01275
1.00948
1.00364
1.00036
1
1
1
1
1
1
1
1
1
1
1
1
1
1
1
1
1
1
1
1
1
1
1
1
1
1
1
1
1
1
1
1
1
1
1
1
1
1
1
1
1
1
1
1
1
1
1
1
1
2.50078
2.26003
2.07143
1.96844
1.84527
1.71774
1.66489
1.60212
1.59718
1.63285
1.69146
1.69968
1.68618
1.65288
1.62917
1.61912
1.60806
1.59887
1.60111
1.60815
1.61103
1.60861
1.59926
1.57996
1.5475
1.50056
1.43897
1.36464
1.28281
1.19971
1.1183
1.04598
1.00227
0.988521
0.986871
0.988918
0.994261
1.00258
1.01059
1.01417
1.01468
1.01474
1.01448
1.01282
1.00829
1.00235
1.00013
1
1
1
1
1
1
1
1
1
1
1
1
1
1
1
1
1
1
1
1
1
1
1
1
1
1
1
1
1
1
1
1
1
1
1
1
1
1
1
1
1
1
1
1
1
1
1
1
1
2.48968
2.33133
2.16423
2.05373
1.95007
1.81855
1.74536
1.69006
1.63529
1.61447
1.60426
1.58998
1.56288
1.51821
1.4907
1.49111
1.49746
1.50277
1.50427
1.50142
1.4929
1.47914
1.46172
1.44349
1.42076
1.38596
1.33463
1.26771
1.19303
1.12123
1.06049
1.01849
0.99765
0.990002
0.987149
0.986823
0.989879
1.00031
1.01246
1.01643
1.01689
1.017
1.01634
1.01307
1.00625
1.00094
1.00002
1
1
1
1
1
1
1
1
1
1
1
1
1
1
1
1
1
1
1
1
1
1
1
1
1
1
1
1
1
1
1
1
1
1
1
1
1
1
1
1
1
1
1
1
1
1
1
1
1
2.44752
2.32644
2.19515
2.08737
2.00037
1.90557
1.82477
1.75536
1.67423
1.61066
1.56968
1.54907
1.51181
1.46543
1.43099
1.43007
1.4326
1.43053
1.42193
1.40888
1.39119
1.36716
1.33666
1.30339
1.27213
1.24039
1.20266
1.15547
1.10133
1.04974
1.01206
0.991102
0.984164
0.98387
0.985836
0.989373
0.993672
1.00339
1.01517
1.01875
1.01916
1.01924
1.01803
1.01206
1.00352
1.0002
1
1
1
1
1
1
1
1
1
1
1
1
1
1
1
1
1
1
1
1
1
1
1
1
1
1
1
1
1
1
1
1
1
1
1
1
1
1
1
1
1
1
1
1
1
1
1
1
1
1
2.38478
2.30043
2.19217
2.10029
2.01976
1.92506
1.85795
1.80405
1.74088
1.65928
1.59581
1.56905
1.53012
1.47473
1.43853
1.42806
1.41573
1.38755
1.35191
1.32476
1.30295
1.27519
1.23678
1.1918
1.1532
1.12405
1.09689
1.06592
1.03096
0.997933
0.975296
0.965762
0.965074
0.969007
0.977931
0.988249
0.999835
1.0131
1.02149
1.02284
1.02309
1.02274
1.01838
1.0083
1.00104
1.00001
1
1
1
1
1
1
1
1
1
1
1
1
1
1
1
1
1
1
1
1
1
1
1
1
1
1
1
1
1
1
1
1
1
1
1
1
1
1
1
1
1
1
1
1
1
1
1
1
1
1
2.30844
2.24757
2.16967
2.08558
2.02102
1.94787
1.86492
1.81445
1.76236
1.69745
1.63288
1.59471
1.54761
1.48367
1.43184
1.40928
1.38935
1.34869
1.30117
1.26479
1.2402
1.20931
1.16727
1.12455
1.08997
1.06194
1.03555
1.00965
0.989054
0.975592
0.967174
0.96319
0.962413
0.965385
0.976115
0.9904
1.00748
1.02274
1.02765
1.02836
1.0286
1.02584
1.01479
1.00295
1.00008
1
1
1
1
1
1
1
1
1
1
1
1
1
1
1
1
1
1
1
1
1
1
1
1
1
1
1
1
1
1
1
1
1
1
1
1
1
1
1
1
1
1
1
1
1
1
1
1
1
1
1
2.29293
2.2019
2.12524
2.0509
1.99875
1.94119
1.86892
1.81727
1.76942
1.69829
1.63893
1.60832
1.56372
1.50358
1.44665
1.40721
1.37796
1.33497
1.28379
1.24163
1.20715
1.16157
1.10747
1.06407
1.03156
1.00342
0.978896
0.960423
0.950421
0.947857
0.948231
0.953402
0.964642
0.977756
0.992401
1.00937
1.02704
1.03546
1.03681
1.03728
1.03417
1.02135
1.00535
1.00022
1
1
1
1
1
1
1
1
1
1
1
1
1
1
1
1
1
1
1
1
1
1
1
1
1
1
1
1
1
1
1
1
1
1
1
1
1
1
1
1
1
1
1
1
1
1
1
1
1
1
1
1
2.23449
2.19184
2.11351
2.02221
1.96173
1.91839
1.85284
1.79116
1.75563
1.7025
1.64079
1.60319
1.55908
1.50183
1.44368
1.39759
1.363
1.32026
1.2656
1.2188
1.1756
1.12511
1.07429
1.03539
1.00411
0.976267
0.951771
0.939802
0.938484
0.938386
0.940183
0.949464
0.96995
0.994541
1.01616
1.03584
1.04763
1.04987
1.0502
1.04359
1.02613
1.0066
1.0003
1
1
1
1
1
1
1
1
1
1
1
1
1
1
1
1
1
1
1
1
1
1
1
1
1
1
1
1
1
1
1
1
1
1
1
1
1
1
1
1
1
1
1
1
1
1
1
1
1
1
1
1
1
2.05736
2.13081
2.09627
2.02698
1.95072
1.88921
1.83037
1.76213
1.72109
1.68163
1.62786
1.58566
1.54109
1.4848
1.42351
1.37434
1.34196
1.30407
1.25317
1.20654
1.16207
1.11432
1.0758
1.04775
1.02343
1.00018
0.980849
0.971646
0.97037
0.971037
0.976098
0.990374
1.01321
1.03689
1.05569
1.06552
1.06772
1.06482
1.05088
1.02796
1.00621
1.00024
1
1
1
1
1
1
1
1
1
1
1
1
1
1
1
1
1
1
1
1
1
1
1
1
1
1
1
1
1
1
1
1
1
1
1
1
1
1
1
1
1
1
1
1
1
1
1
1
1
1
1
1
1
1
1.61835
1.93192
1.99523
1.97257
1.93684
1.88468
1.82252
1.76103
1.70523
1.65724
1.6049
1.55772
1.51288
1.45836
1.39715
1.35342
1.32432
1.28827
1.24081
1.19449
1.14915
1.10897
1.08187
1.06106
1.04117
1.02197
1.01017
1.00763
1.00844
1.01406
1.02763
1.04756
1.06803
1.08232
1.08736
1.08606
1.07493
1.05467
1.02605
1.00442
1.00012
1
1
1
1
1
1
1
1
1
1
1
1
1
1
1
1
1
1
1
1
1
1
1
1
1
1
1
1
1
1
1
1
1
1
1
1
1
1
1
1
1
1
1
1
1
1
1
1
1
1
1
1
1
1
1
1.11064
1.47347
1.72668
1.82629
1.84899
1.83901
1.80671
1.76342
1.7157
1.66088
1.60545
1.55294
1.50345
1.44751
1.38645
1.34726
1.31908
1.286
1.24223
1.19777
1.15898
1.13213
1.11449
1.09951
1.08571
1.07373
1.07015
1.07072
1.07426
1.0826
1.09416
1.10369
1.10726
1.10558
1.09647
1.08079
1.05441
1.02007
1.00225
1.00004
1
1
1
1
1
1
1
1
1
1
1
1
1
1
1
1
1
1
1
1
1
1
1
1
1
1
1
1
1
1
1
1
1
1
1
1
1
1
1
1
1
1
1
1
1
1
1
1
1
1
1
1
1
1
1
1
1.00184
1.05115
1.28123
1.50032
1.65291
1.70846
1.71201
1.70197
1.68636
1.65776
1.61636
1.56731
1.51718
1.46224
1.40873
1.37189
1.3409
1.30882
1.26968
1.23086
1.20509
1.18689
1.17148
1.15836
1.14795
1.14021
1.13567
1.13312
1.13164
1.13004
1.12693
1.12152
1.11357
1.10249
1.08168
1.04593
1.0119
1.00077
1.00001
1
1
1
1
1
1
1
1
1
1
1
1
1
1
1
1
1
1
1
1
1
1
1
1
1
1
1
1
1
1
1
1
1
1
1
1
1
1
1
1
1
1
1
1
1
1
1
1
1
1
1
1
1
1
1
1
1
1
1.00047
1.01456
1.10041
1.28891
1.45946
1.54044
1.57692
1.58526
1.57829
1.56005
1.53281
1.50064
1.46383
1.43102
1.40182
1.37169
1.34009
1.30736
1.27782
1.25496
1.23539
1.21772
1.20227
1.18899
1.17717
1.16618
1.15595
1.14644
1.13765
1.12904
1.11845
1.1009
1.07009
1.03002
1.00476
1.00016
1
1
1
1
1
1
1
1
1
1
1
1
1
1
1
1
1
1
1
1
1
1
1
1
1
1
1
1
1
1
1
1
1
1
1
1
1
1
1
1
1
1
1
1
1
1
1
1
1
1
1
1
1
1
1
1
1
1
1
1
1
1.00006
1.00197
1.02285
1.10542
1.24081
1.3501
1.42014
1.45203
1.45797
1.45082
1.43533
1.41659
1.39642
1.37542
1.35216
1.32684
1.30133
1.27788
1.2571
1.23835
1.22135
1.20635
1.193
1.18068
1.16858
1.15609
1.14324
1.12876
1.10955
1.08151
1.04438
1.01233
1.00108
1.00002
1
1
1
1
1
1
1
1
1
1
1
1
1
1
1
1
1
1
1
1
1
1
1
1
1
1
1
1
1
1
1
1
1
1
1
1
1
1
1
1
1
1
1
1
1
1
1
1
1
1
1
1
1
1
1
1
1
1
1
1
1
1
1
1
1.00015
1.00236
1.01833
1.06756
1.15197
1.22912
1.28243
1.31405
1.33256
1.33512
1.3308
1.31964
1.30519
1.29028
1.27495
1.25862
1.2418
1.22535
1.20983
1.19516
1.18056
1.16488
1.14707
1.12665
1.10284
1.07466
1.04309
1.0157
1.00252
1.00012
1
1
1
1
1
1
1
1
1
1
1
1
1
1
1
1
1
1
1
1
1
1
1
1
1
1
1
1
1
1
1
1
1
1
1
1
1
1
1
1
1
1
1
1
1
1
1
1
1
1
1
1
1
1
1
1
1
1
1
1
1
1
1
1
1
1
1
1
1.00012
1.00127
1.00736
1.02395
1.05397
1.0959
1.14088
1.17696
1.1935
1.2004
1.20306
1.20099
1.1962
1.18789
1.17594
1.16189
1.14674
1.13033
1.11199
1.09143
1.06919
1.04658
1.02578
1.01016
1.00226
1.0002
1
1
1
1
1
1
1
1
1
1
1
1
1
1
1
1
1
1
1
1
1
1
1
1
1
1
1
1
1
1
1
1
1
1
1
1
1
1
1
1
1
1
1
1
1
1
1
1
1
1
1
1
1
1
1
1
1
1
1
1
1
1
1
1
1
1
1
1
1
1
1
1
1.00003
1.0002
1.00096
1.00356
1.00984
1.01995
1.02977
1.03878
1.04674
1.05238
1.0547
1.05359
1.05003
1.04419
1.03685
1.02863
1.02025
1.01264
1.00664
1.00269
1.00072
1.0001
1.00001
1
1
1
1
1
1
1
1
1
1
1
1
1
1
1
1
1
1
1
1
1
1
1
1
1
1
1
1
1
1
1
1
1
1
1
1
1
1
1
1
1
1
1
1
1
1
1
1
1
1
1
1
1
1
1
1
1
1
1
1
1
1
1
1
1
1
1
1
1
1
1
1
1
1
1
1
1.00001
1.00005
1.00018
1.0004
1.00072
1.00114
1.00159
1.00189
1.00193
1.00183
1.00157
1.00118
1.00076
1.00041
1.00017
1.00005
1.00001
1
1
1
1
1
1
1
1
1
1
1
1
1
1
1
1
1
1
1
1
1
1
1
1
1
1
1
1
1
1
1
1
1
1
1
1
1
1
1
1
1
1
1
1
1
1
1
1
1
1
1
1
1
1
1
1
1
1
1
1
1
1
1
1
1
1
1
1
1
1
1
1
1
1
1
1
1
1
1
1
1
1
1
1
1
1
1
1
1
1
1
1
1
1
1
1
1
1
1
1
1
1
1
1
1
1
1
1
1
1
1
1
1
1
1
1
1
1
1
1
1
1
1
1
1
1
1
1
1
1
1
1
1
1
1
1
1
1
1
1
1
1
1
1
1
1
1
1
1
1
1
1
1
1
1
1
1
1
1
1
1
1
1
1
1
1
1
1
1
1
1
1
1
1
1
1
1
1
1
1
1
1
1
1
1
1
1
1
1
1
1
1
1
1
1
1
1
1
1
1
1
1
1
1
1
1
1
1
1
1
1
1
1
1
1
1
1
1
1
1
1
1
1
1
1
1
1
1
1
1
1
1
1
1
1
1
1
1
1
1
1
1
1
1
1
1
1
1
1
1
1
1
1
1
1
1
1
1
1
1
1
1
1
1
1
1
1
1
1
1
1
1
1
1
1
1
1
1
1
1
1
1
1
1
1
1
1
1
1
1
1
1
1
1
1
1
1
1
1
1
1
1
1
1
1
1
1
1
1
1
1
1
1
1
1
1
1
1
1
1
1
1
1
1
1
1
1
1
1
1
1
1
1
1
1
1
1
1
1
1
1
1
1
1
1
1
1
1
1
1
1
1
1
1
1
1
1
1
1
1
1
1
1
1
1
1
1
1
1
1
1
1
1
1
1
1
1
1
1
1
1
1
1
1
1
1
1
1
1
1
1
1
1
1
1
1
1
1
1
1
1
1
1
1
1
1
1
1
1
1
1
1
1
1
1
1
1
1
1
1
1
1
1
1
1
1
1
1
1
1
1
1
1
1
1
1
1
1
1
1
1
1
1
1
1
1
1
1
1
1
1
1
1
1
1
1
1
1
1
1
1
1
1
1
1
1
1
1
1
1
1
1
1
1
1
1
1
1
1
1
1
1
1
1
1
1
1
1
1
1
1
1
1
1
1
1
1
1
1
1
1
1
1
1
1
1
1
1
1
1
1
1
1
1
1
1
1
1
1
1
1
1
1
1
1
1
1
1
1
1
1
1
1
1
1
1
1
1
1
1
1
1
1
1
1
1
1
1
1
1
1
1
1
1
1
1
1
1
1
1
1
1
1
1
1
1
1
1
1
1
1
1
1
1
1
1
1
1
1
1
1
1
1
1
1
1
1
1
1
1
1
1
1
1
1
1
1
1
1
1
1
1
1
1
1
1
1
1
1
1
1
1
1
1
1
1
1
1
1
1
1
1
1
1
1
1
1
1
1
1
1
1
1
1
1
1
1
1
1
1
1
1
1
1
1
1
1
1
1
1
1
1
1
1
1
1
1
1
1
1
1
1
1
1
1
1
1
1
1
1
1
1
1
1
1
1
1
1
1
1
1
1
1
1
1
1
1
1
1
1
1
1
1
1
1
1
1
1
1
1
1
1
1
1
1
1
1
1
1
1
1
1
1
1
1
1
1
1
1
1
1
1
1
1
1
1
1
1
1
1
1
1
1
1
1
1
1
1
1
1
1
1
1
1
1
1
1
1
1
1
1
1
1
1
1
1
1
1
1
1
1
1
1
1
1
1
1
1
1
1
1
1
1
1
1
1
1
1
1
1
1
1
1
1
1
1
1
1
1
1
1
1
1
1
1
1
1
1
1
1
1
1
1
1
1
1
1
1
1
1
1
1
1
1
1
1
1
1
1
1
1
1
1
1
1
1
1
1
1
1
1
1
1
1
1
1
1
1
1
1
1
1
1
1
1
1
1
1
1
1
1
1
1
1
1
1
1
1
1
1
1
1
1
1
1
1
1
1
1
1
1
1
1
1
1
1
1
1
1
1
1
1
1
1
1
1
1
1
1
1
1
1
1
1
1
1
1
1
1
1
1
1
1
1
1
1
1
1
1
1
1
1
1
1
1
1
1
1
1
1
1
1
1
1
1
1
1
1
1
1
1
1
1
1
1
1
1
1
1
1
1
1
1
1
1
1
1
1
1
1
1
1
1
1
1
1
1
1
1
1
1
1
1
1
1
1
1
1
1
1
1
1
1
1
1
1
1
1
1
1
1
1
1
1
1
1
1
1
1
1
1
1
1
1
1
1
1
1
1
1
1
1
1
1
1
1
1
1
1
1
1
1
1
1
1
1
1
1
1
1
1
1
1
1
1
1
1
1
1
1
1
1
1
1
1
1
1
1
1
1
1
1
1
1
1
1
1
1
1
1
1
1
1
1
1
1
1
1
1
1
1
1
1
1
1
1
1
1
1
1
1
1
1
1
1
1
1
1
1
1
1
1
1
1
1
1
1
1
1
1
1
1
1
1
1
1
1
1
1
1
1
1
1
1
1
1
1
1
1
1
1
1
1
1
1
1
1
1
1
1
1
1
1
1
1
1
1
1
1
1
1
1
1
1
1
1
1
1
1
1
1
1
1
1
1
1
1
1
1
1
1
1
1
1
1
1
1
1
1
1
1
1
1
1
1
1
1
1
1
1
1
1
1
1
1
1
1
1
1
1
1
1
1
1
1
1
1
1
1
1
1
1
1
1
1
1
1
1
1
1
1
1
1
1
1
1
1
1
1
1
1
1
1
1
1
1
1
1
1
1
1
1
1
1
1
1
1
1
1
1
1
1
1
1
1
1
1
1
1
1
1
1
1
1
1
1
1
1
1
1
1
1
1
1
1
1
1
1
1
1
1
1
1
1
1
1
1
1
1
1
1
1
1
1
1
1
1
1
1
1
1
1
1
1
1
1
1
1
1
1
1
1
1
1
1
1
1
1
1
1
1
1
1
1
1
1
1
1
1
1
1
1
1
1
1
1
)
;

boundaryField
{
    inlet
    {
        type            fixedValue;
        value           uniform 1;
    }
    outlet
    {
        type            inletOutlet;
        inletValue      uniform 1;
        value           nonuniform List<scalar> 
32
(
1
1
1
1
1
1
1
1
1
1
1
1
1
1
1
1
1
1
1
1
1
1
1
1
1
1
1
1
1
1
1
1
)
;
    }
    bottom
    {
        type            symmetryPlane;
    }
    top
    {
        type            symmetryPlane;
    }
    obstacle
    {
        type            zeroGradient;
    }
    defaultFaces
    {
        type            empty;
    }
}


// ************************************************************************* //
