/*--------------------------------*- C++ -*----------------------------------*\
  =========                 |
  \\      /  F ield         | OpenFOAM: The Open Source CFD Toolbox
   \\    /   O peration     | Website:  https://openfoam.org
    \\  /    A nd           | Version:  7
     \\/     M anipulation  |
\*---------------------------------------------------------------------------*/
FoamFile
{
    version     2.0;
    format      ascii;
    class       volScalarField;
    location    "2.4";
    object      p;
}
// * * * * * * * * * * * * * * * * * * * * * * * * * * * * * * * * * * * * * //

dimensions      [1 -1 -2 0 0 0 0];

internalField   nonuniform List<scalar> 
16128
(
1
1
1
1
1
1
1
1
1
1
1
1
1
1
1
1
1
1
1
1
1
1
1
1
2.78357
9.43128
10.5367
10.6076
10.7273
10.836
10.9442
11.0485
11.1489
11.2447
11.3351
11.4196
11.4996
11.5761
11.648
11.7143
11.7755
11.8301
11.8789
11.9211
11.9575
11.9827
12.0032
12.0169
1
1
1
1
1
1
1
1
1
1
1
1
1
1
1
1
1
1
1
1
1
1
1
1
2.72573
9.36433
10.5357
10.6082
10.7271
10.8346
10.9417
11.0453
11.1453
11.2407
11.3306
11.4146
11.494
11.5697
11.6405
11.7057
11.7658
11.8196
11.8677
11.9093
11.9453
11.9705
11.9909
12.0046
1
1
1
1
1
1
1
1
1
1
1
1
1
1
1
1
1
1
1
1
1
1
1
1
2.5797
9.24948
10.5266
10.5973
10.7182
10.8259
10.9327
11.0358
11.1354
11.2307
11.3206
11.4048
11.4842
11.5594
11.6292
11.6933
11.7522
11.8047
11.8515
11.8917
11.9262
11.9508
11.9706
11.9843
1
1
1
1
1
1
1
1
1
1
1
1
1
1
1
1
1
1
1
1
1
1
1
1
2.38415
9.07735
10.5184
10.5852
10.7063
10.8121
10.9175
11.0191
11.1174
11.2118
11.3013
11.3856
11.465
11.5399
11.6088
11.672
11.73
11.7815
11.8273
11.8663
11.8994
11.9234
11.942
11.9552
1
1
1
1
1
1
1
1
1
1
1
1
1
1
1
1
1
1
1
1
1
1
1
1
2.15182
8.83203
10.5057
10.5679
10.6878
10.7912
10.8953
10.9957
11.093
11.1863
11.2752
11.3594
11.4389
11.5134
11.5814
11.6434
11.6999
11.7496
11.7939
11.8317
11.8635
11.8876
11.9052
11.9189
1
1
1
1
1
1
1
1
1
1
1
1
1
1
1
1
1
1
1
1
1
1
1
1
1.8935
8.50442
10.4953
10.5523
10.6689
10.7688
10.8706
10.9684
11.0632
11.1543
11.2415
11.325
11.404
11.478
11.545
11.6056
11.6603
11.7081
11.7508
11.7874
11.8181
11.8423
11.8589
11.8731
1
1
1
1
1
1
1
1
1
1
1
1
1
1
1
1
1
1
1
1
1
1
1
1
1.61808
8.08175
10.4921
10.5354
10.6462
10.7416
10.8406
10.9356
11.0276
11.1164
11.2019
11.2844
11.3626
11.4357
11.5016
11.5607
11.6135
11.6591
11.7
11.7352
11.7645
11.7877
11.8018
11.8154
1
1
1
1
1
1
1
1
1
1
1
1
1
1
1
1
1
1
1
1
1
1
1
1
1.34617
7.5679
10.4724
10.5031
10.609
10.7024
10.8008
10.8952
10.9856
11.0719
11.1549
11.2353
11.3112
11.3818
11.4452
11.5019
11.5522
11.5956
11.6346
11.669
11.6979
11.7212
11.7347
11.7487
1
1
1
1
1
1
1
1
1
1
1
1
1
1
1
1
1
1
1
1
1
1
1
1
1.09079
6.96927
10.4396
10.4736
10.5678
10.6589
10.7539
10.8453
10.9323
11.0157
11.096
11.1735
11.2469
11.3149
11.376
11.4304
11.4783
11.5191
11.5554
11.588
11.6154
11.6371
11.6485
11.6613
1
1
1
1
1
1
1
1
1
1
1
1
1
1
1
1
1
1
1
1
1
1
1
1
1.00283
6.2328
10.2847
10.3921
10.4956
10.5958
10.6915
10.782
10.866
10.9449
11.0221
11.0983
11.1703
11.2357
11.2936
11.3447
11.3894
11.4274
11.4608
11.4915
11.5161
11.533
11.5412
11.5508
1
1
1
1
1
1
1
1
1
1
1
1
1
1
1
1
1
1
1
1
1
1
1
1
1.00001
5.35724
10.1059
10.3306
10.4336
10.5385
10.6334
10.7219
10.8033
10.8792
10.9507
11.0189
11.0846
11.1452
11.1988
11.2452
11.2849
11.3175
11.3437
11.368
11.3857
11.3985
11.4047
11.4151
1
1
1
1
1
1
1
1
1
1
1
1
1
1
1
1
1
1
1
1
1
1
1
1
1
4.41655
9.84998
10.2719
10.3834
10.4862
10.577
10.6589
10.7321
10.7977
10.8599
10.922
10.982
11.036
11.0833
11.1238
11.1572
11.1841
11.2038
11.2229
11.2322
11.233
11.2255
11.2212
1
1
1
1
1
1
1
1
1
1
1
1
1
1
1
1
1
1
1
1
1
1
1
1
1
3.47496
9.45297
10.2434
10.3376
10.4399
10.5275
10.6037
10.6706
10.7286
10.7806
10.8303
10.8779
10.9218
10.9593
10.9898
11.0132
11.0303
11.0368
11.0361
11.0192
11.0038
10.9832
10.9867
1
1
1
1
1
1
1
1
1
1
1
1
1
1
1
1
1
1
1
1
1
1
1
1
1
2.53743
8.8156
10.236
10.3132
10.3999
10.472
10.5396
10.6007
10.6534
10.6988
10.7391
10.775
10.8048
10.8276
10.8436
10.8511
10.8517
10.8383
10.8164
10.7817
10.7464
10.6834
10.6092
1
1
1
1
1
1
1
1
1
1
1
1
1
1
1
1
1
1
1
1
1
1
1
1
1
1.64114
8.06429
10.306
10.245
10.3269
10.4058
10.4743
10.5295
10.5757
10.6134
10.644
10.668
10.6853
10.6938
10.6906
10.6787
10.6578
10.6175
10.5586
10.466
10.3348
10.1951
10.0873
1
1
1
1
1
1
1
1
1
1
1
1
1
1
1
1
1
1
1
1
1
1
1
1
1
1.05551
7.0031
10.2823
10.2059
10.2653
10.3259
10.3887
10.4399
10.4819
10.515
10.5381
10.5511
10.5556
10.5469
10.5257
10.4918
10.4414
10.3631
10.2498
10.0947
9.90028
9.6879
9.60051
1
1
1
1
1
1
1
1
1
1
1
1
1
1
1
1
1
1
1
1
1
1
1
1
1
1.00029
5.60213
9.85458
10.0271
10.1378
10.2162
10.2799
10.3319
10.3735
10.4053
10.423
10.4272
10.4191
10.3948
10.3547
10.2948
10.2122
10.0936
9.93005
9.69139
9.30455
8.44402
6.47504
1
1
1
1
1
1
1
1
1
1
1
1
1
1
1
1
1
1
1
1
1
1
1
1
1
0.999997
4.21278
9.51019
9.99677
10.0921
10.1637
10.1955
10.2303
10.2614
10.2871
10.2967
10.2922
10.272
10.2327
10.1726
10.0861
9.96998
9.80853
9.57851
9.23557
8.62963
7.68624
5.48317
1
1
1
1
1
1
1
1
1
1
1
1
1
1
1
1
1
1
1
1
1
1
1
1
1
0.999999
2.79248
8.78484
9.95283
10.0232
10.0801
10.1145
10.1421
10.1606
10.1744
10.1707
10.155
10.121
10.0657
9.98534
9.87358
9.72392
9.52146
9.23184
8.81321
8.13987
7.07016
5.13188
1
1
1
1
1
1
1
1
1
1
1
1
1
1
1
1
1
1
1
1
1
1
1
1
1
1
1.55981
7.91391
10.0739
9.97313
9.98816
10.0207
10.0393
10.0498
10.0517
10.037
10.0101
9.96402
9.89435
9.79561
9.66139
9.48178
9.24235
8.91224
8.43584
7.75985
6.65538
5.08454
1
1
1
1
1
1
1
1
1
1
1
1
1
1
1
1
1
1
1
1
1
1
1
1
1
1
1.03667
6.52768
9.83255
9.78787
9.83996
9.89854
9.92525
9.93546
9.92702
9.90337
9.86483
9.80613
9.72137
9.60477
9.44993
9.2459
8.97726
8.62165
8.12735
7.46357
6.42686
5.1994
1
1
1
1
1
1
1
1
1
1
1
1
1
1
1
1
1
1
1
1
1
1
1
1
1
1
1.00004
4.69071
9.33188
9.71249
9.79236
9.82458
9.82946
9.82898
9.80851
9.77328
9.72196
9.65085
9.55284
9.42158
9.25047
9.02885
8.74081
8.36947
7.87998
7.23837
6.32335
5.32869
1
1
1
1
1
1
1
1
1
1
1
1
1
1
1
1
1
1
1
1
1
1
1
1
1
1
0.999999
2.82886
8.67885
9.70384
9.71744
9.73989
9.73986
9.72671
9.69384
9.64555
9.58065
9.49707
9.38728
9.24371
9.05834
8.82402
8.52555
8.15185
7.67296
7.0661
6.27361
5.4551
1
1
1
1
1
1
1
1
1
1
1
1
1
1
1
1
1
1
1
1
1
1
1
1
1
1
1
1.36246
7.61468
9.83231
9.68349
9.63755
9.63089
9.61226
9.57549
9.51914
9.44419
9.34941
9.22852
9.07616
8.88188
8.642
8.33994
7.97403
7.50304
6.93842
6.26107
5.56124
1
1
1
1
1
1
1
1
1
1
1
1
1
1
1
1
1
1
1
1
1
1
1
1
1
1
1
1.01366
5.8975
9.35015
9.47007
9.5182
9.52248
9.49289
9.45121
9.39009
9.30855
9.20494
9.07488
8.91472
8.7151
8.4727
8.17562
7.81706
7.36299
6.84373
6.25948
5.64514
1
1
1
1
1
1
1
1
1
1
1
1
1
1
1
1
1
1
1
1
1
1
1
1
1
1
1
0.999917
3.63995
8.80872
9.40921
9.43397
9.43943
9.40469
9.3533
9.28047
9.18782
9.07392
8.93442
8.76651
8.56435
8.32217
8.03168
7.68495
7.2577
6.78162
6.26923
5.72035
1
1
1
1
1
1
1
1
1
1
1
1
1
1
1
1
1
1
1
1
1
1
1
1
1
1
1
0.999979
1.71165
7.97436
9.55229
9.4118
9.3397
9.29283
9.2337
9.15651
9.05991
8.94181
8.79847
8.6268
8.42401
8.18536
7.90147
7.5692
7.16851
6.73729
6.2761
5.7784
1
1
1
1
1
1
1
1
1
1
1
1
1
1
1
1
1
1
1
1
1
1
1
1
1
1
1
0.999997
1.04755
6.19689
9.1572
9.20817
9.21417
9.1795
9.1174
9.03847
8.94044
8.82123
8.6759
8.50356
8.30139
8.06656
7.78835
7.47117
7.09715
6.70714
6.28505
5.84042
1
1
1
1
1
1
1
1
1
1
1
1
1
1
1
1
1
1
1
1
1
1
1
1
1
1
1
1
1.00003
3.62163
8.60711
9.16433
9.13477
9.09369
9.03118
8.94555
8.84007
8.71464
8.56549
8.39101
8.18989
7.95894
7.68831
7.38596
7.03909
6.68433
6.29128
5.88889
1
1
1
1
1
1
1
1
1
1
1
1
1
1
1
1
1
1
1
1
1
1
1
1
1
1
1
1
0.999996
1.51491
7.6609
9.30162
9.10068
8.99985
8.92405
8.836
8.73138
8.60833
8.46198
8.29012
8.08965
7.86478
7.60573
7.31664
6.99771
6.66622
6.29982
5.93321
1
1
1
1
1
1
1
1
1
1
1
1
1
1
1
1
1
1
1
1
1
1
1
1
1
1
1
1
0.999999
1.02374
5.68437
8.82459
8.86455
8.86942
8.81103
8.72772
8.62783
8.50797
8.36477
8.19683
8.00185
7.78049
7.53168
7.25557
6.96068
6.64558
6.30567
5.96522
1
1
1
1
1
1
1
1
1
1
1
1
1
1
1
1
1
1
1
1
1
1
1
1
1
1
1
1
1
0.999933
2.9425
8.15845
8.83323
8.81271
8.7447
8.65834
8.55445
8.43147
8.286
8.11802
7.926
7.70969
7.46894
7.20554
6.92767
6.62699
6.31347
5.99218
1
1
1
1
1
1
1
1
1
1
1
1
1
1
1
1
1
1
1
1
1
1
1
1
1
1
1
1
1
0.999981
1.26749
6.67399
8.86471
8.74878
8.66588
8.57504
8.47143
8.34857
8.20375
8.03805
7.85099
7.64282
7.41242
7.16279
6.89715
6.61144
6.31927
6.01429
1
1
1
1
1
1
1
1
1
1
1
1
1
1
1
1
1
1
1
1
1
1
1
1
1
1
1
1
1
0.999997
1.00571
4.06789
8.29332
8.58781
8.55735
8.49561
8.40255
8.28102
8.13545
7.97126
7.78848
7.58732
7.36617
7.12708
6.87084
6.60026
6.32321
6.03509
1
1
1
1
1
1
1
1
1
1
1
1
1
1
1
1
1
1
1
1
1
1
1
1
1
1
1
1
1
1
0.999983
1.5849
7.19463
8.70515
8.55777
8.4636
8.35282
8.22013
8.07162
7.90898
7.73048
7.53498
7.32176
7.09236
6.84718
6.59169
6.32795
6.05667
1
1
1
1
1
1
1
1
1
1
1
1
1
1
1
1
1
1
1
1
1
1
1
1
1
1
1
1
1
1
0.999996
1.02809
4.86357
8.29601
8.40527
8.3621
8.26889
8.14675
8.00622
7.84952
7.67609
7.48603
7.28042
7.06019
6.82689
6.5844
6.33313
6.07516
1
1
1
1
1
1
1
1
1
1
1
1
1
1
1
1
1
1
1
1
1
1
1
1
1
1
1
1
1
1
0.999999
1.00002
1.90955
7.4441
8.51323
8.35863
8.2366
8.10684
7.96277
7.80405
7.63056
7.44315
7.24244
7.02928
6.80638
6.57497
6.33605
6.09054
1
1
1
1
1
1
1
1
1
1
1
1
1
1
1
1
1
1
1
1
1
1
1
1
1
1
1
1
1
1
1
1
1.06377
5.32515
8.22045
8.23564
8.16037
8.04482
7.90623
7.75068
7.58013
7.39701
7.20219
6.99773
6.78554
6.56559
6.33798
6.10494
1
1
1
1
1
1
1
1
1
1
1
1
1
1
1
1
1
1
1
1
1
1
1
1
1
1
1
1
1
1
1
1
1.00025
2.19821
7.42266
8.27114
8.13664
8.00666
7.86414
7.70903
7.54093
7.36161
7.17331
6.97677
6.77223
6.5607
6.34187
6.11913
1
1
1
1
1
1
1
1
1
1
1
1
1
1
1
1
1
1
1
1
1
1
1
1
1
1
1
1
1
1
1
1
1
1.10346
5.40788
8.0962
8.06223
7.94372
7.80883
7.65826
7.49644
7.32344
7.1419
6.95294
6.75639
6.55339
6.345
6.1326
1
1
1
1
1
1
1
1
1
1
1
1
1
1
1
1
1
1
1
1
1
1
1
1
1
1
1
1
1
1
1
1
1
1.00081
2.24607
7.25922
8.06639
7.9091
7.77487
7.62353
7.46357
7.29476
7.11925
6.93778
6.74932
6.5542
6.35431
6.15024
1
1
1
1
1
1
1
1
1
1
1
1
1
1
1
1
1
1
1
1
1
1
1
1
1
1
1
1
1
1
1
1
1
1
1.11062
5.21488
7.89555
7.85256
7.72476
7.58031
7.42472
7.26378
7.09673
6.92306
6.74212
6.55489
6.3621
6.16464
1
1
1
1
1
1
1
1
1
1
1
1
1
1
1
1
1
1
1
1
1
1
1
1
1
1
1
1
1
1
1
1
1
1
1.00103
2.15328
6.9265
7.8443
7.6878
7.55129
7.40044
7.24735
7.08684
6.91831
6.74216
6.56038
6.37331
6.18165
1
1
1
1
1
1
1
1
1
1
1
1
1
1
1
1
1
1
1
1
1
1
1
1
1
1
1
1
1
1
1
1
1
1
1
1.09413
4.67108
7.62694
7.64464
7.51307
7.37353
7.22923
7.07437
6.91024
6.73893
6.56185
6.38029
6.19633
1
1
1
1
1
1
1
1
1
1
1
1
1
1
1
1
1
1
1
1
1
1
1
1
1
1
1
1
1
1
1
1
1
1
1
1.00092
1.87858
6.41674
7.63666
7.49608
7.37528
7.22931
7.0714
6.90707
6.73903
6.56706
6.39089
6.21295
1
1
1
1
1
1
1
1
1
1
1
1
1
1
1
1
1
1
1
1
1
1
1
1
1
1
1
1
1
1
1
1
1
1
1
1
1.05614
3.75328
7.26543
7.48849
7.35808
7.20845
7.05356
6.89478
6.73284
6.56875
6.40098
6.22753
1
1
1
1
1
1
1
1
1
1
1
1
1
1
1
1
1
1
1
1
1
1
1
1
1
1
1
1
1
1
1
1
1
1
1
1
1.00052
1.50364
5.72621
7.53878
7.34634
7.19162
7.04446
6.89643
6.74182
6.58207
6.41912
6.24958
1
1
1
1
1
1
1
1
1
1
1
1
1
1
1
1
1
1
1
1
1
1
1
1
1
1
1
1
1
1
1
1
1
1
1
1
1
1.01997
2.78021
6.76374
7.29685
7.16956
7.0403
6.89757
6.74549
6.5859
6.42314
6.26026
1
1
1
1
1
1
1
1
1
1
1
1
1
1
1
1
1
1
1
1
1
1
1
1
1
1
1
1
1
1
1
1
1
1
1
1
1
1.00014
1.2153
4.66968
7.25323
7.20127
7.06997
6.91733
6.76043
6.60082
6.43887
6.27892
1
1
1
1
1
1
1
1
1
1
1
1
1
1
1
1
1
1
1
1
1
1
1
1
1
1
1
1
1
1
1
1
1
1
1
1
1
1
1.00448
1.9512
6.0465
7.19287
7.03665
6.89008
6.74172
6.59272
6.4419
6.28863
1
1
1
1
1
1
1
1
1
1
1
1
1
1
1
1
1
1
1
1
1
1
1
1
1
1
1
1
1
1
1
1
1
1
1
1
1
1
1.00002
1.06574
3.32794
6.71972
7.02364
6.90058
6.76052
6.61847
6.47157
6.32015
1
1
1
1
1
1
1
1
1
1
1
1
1
1
1
1
1
1
1
1
1
1
1
1
1
1
1
1
1
1
1
1
1
1
1
1
1
1
1
1.00081
1.36514
4.8888
6.98251
6.92903
6.78916
6.6457
6.49557
6.34167
1
1
1
1
1
1
1
1
1
1
1
1
1
1
1
1
1
1
1
1
1
1
1
1
1
1
1
1
1
1
1
1
1
1
1
1
1
1
1
1
1.0117
2.13649
5.93129
6.8976
6.78699
6.64129
6.49536
6.34838
1
1
1
1
1
1
1
1
1
1
1
1
1
1
1
1
1
1
1
1
1
1
1
1
1
1
1
1
1
1
1
1
1
1
1
1
1
1
1
1
1.00008
1.09264
3.3312
6.46919
6.80083
6.66118
6.51383
6.37327
1
1
1
1
1
1
1
1
1
1
1
1
1
1
1
1
1
1
1
1
1
1
1
1
1
1
1
1
1
1
1
1
1
1
1
1
1
1
1
1
1
1.00141
1.37311
4.62299
6.66167
6.68793
6.54892
6.40475
1
1
1
1
1
1
1
1
1
1
1
1
1
1
1
1
1
1
1
1
1
1
1
1
1
1
1
1
1
1
1
1
1
1
1
1
1
1
1
1
1
1.00001
1.01275
1.99348
5.51549
6.65101
6.56804
6.42276
1
1
1
1
1
1
1
1
1
1
1
1
1
1
1
1
1
1
1
1
1
1
1
1
1
1
1
1
1
1
1
1
1
1
1
1
1
1
1
1
1
1
1.0001
1.07305
2.89695
6.07701
6.57206
6.45525
1
1
1
1
1
1
1
1
1
1
1
1
1
1
1
1
1
1
1
1
1
1
1
1
1
1
1
1
1
1
1
1
1
1
1
1
1
1
1
1
1
1
1
1.00108
1.2543
3.95235
6.29202
6.49265
1
1
1
1
1
1
1
1
1
1
1
1
1
1
1
1
1
1
1
1
1
1
1
1
1
1
1
1
1
1
1
1
1
1
1
1
1
1
1
1
1
1
1
1
1.00708
1.63859
4.82764
6.37338
1
1
1
1
1
1
1
1
1
1
1
1
1
1
1
1
1
1
1
1
1
1
1
1
1
1
1
1
1
1
1
1
1
1
1
1
1
1
1
1
1
1
1
1
1.00005
1.03368
2.24055
5.42715
1
1
1
1
1
1
1
1
1
1
1
1
1
1
1
1
1
1
1
1
1
1
1
1
1
1
1
1
1
1
1
1
1
1
1
1
1
1
1
1
1
1
1
1
1
1.0004
1.11406
2.98228
1
1
1
1
1
1
1
1
1
1
1
1
1
1
1
1
1
1
1
1
1
1
1
1
1
1
1
1
1
1
1
1
1
1
1
1
1
1
1
1
1
1
1
1
1
1
1.00218
1.28779
1
1
1
1
1
1
1
1
1
1
1
1
1
1
1
1
1
1
1
1
1
1
1
1
1
1
1
1
1
1
1
1
1
1
1
1
1
1
1
1
1
1
1
1
1
1
1.00001
1.009
1
1
1
1
1
1
1
1
1
1
1
1
1
1
1
1
1
1
1
1
1
1
1
1
1
1
1
1
1
1
1
1
1
1
1
1
1
1
1
1
1
1
1
1
1
1
1
1.00007
1
1
1
1
1
1
1
1
1
1
1
1
1
1
1
1
1
1
1
1
1
1
1
1
1
1
1
1
1
1
1
1
1
1
1
1
1
1
1
1
1
1
1
1
1
1
1
1
1
1
1
1
1
1
1
1
1
1
1
1
1
1
1
1
1
1
1
1
1
1
1
1
1
1
1
1
1
1
1
1
1
1
1
1
1
1
1
1
1
1
1
1
1
1
1
1
1
1
1
1
1
1
1
1
1
1
1
1
1
1
1
1
1
1
1
1
1
1
1
1
1
1
1
1
1
1
1
1
1
1
1
1
1
1
1
1
1
1
1
1
1
1
1
1
1
1
1
1
1
1
1
1
1
1
1
1
1
1
1
1
1
1
1
1
1
1
1
1
1
1
1
1
1
1
1
1
1
1
1
1
1
1
1
1
1
1
1
1
1
1
1
1
1
1
1
1
1
1
1
1
1
1
1
1
1
1
1
1
1
1
1
1
1
1
1
1
1
1
1
1
1
1
1
1
1
1
1
1
1
1
1
1
1
1
1
1
1
1
1
1
1
1
1
1
1
1
1
1
1
1
1
1
1
1
1
1
1
1
1
1
1
1
1
1
1
1
1
1
1
1
1
1
1
1
1
1
1
1
1
1
1
1
1
1
1
1
1
1
1
1
1
1
1
1
1
1
1
1
1
1
1
1
1
1
1
1
1
1
1
1
1
1
1
1
1
1
1
1
1
1
1
1
1
1
1
1
1
1
1
1
1
1
1
1
1
1
1
1
1
1
1
1
1
1
1
1
1
1
1
1
1
1
1
1
1
1
1
1
1
1
1
1
1
1
1
1
1
1
1
1
1
1
1
1
1
1
1
1
1
1
1
1
1
1
1
1
1
1
1
1
1
1
1
1
1
1
1
1
1
1
1
1
1
1
1
1
1
1
1
1
1
1
1
1
1
1
1
1
1
1
1
1
1
1
1
1
1
1
1
1
1
1
1
1
1
1
1
1
1
1
1
1
1
1
1
1
1
1
1
1
1
1
1
1
1
1
1
1
1
1
1
1
1
1
1
1
1
1
1
1
1
1
1
1
1
1
1
1
1
1
1
1
1
1
1
1
1
1
1
1
1
1
1
1
1
1
1
1
1
1
1
1
1
1
1
1
1
1
1
1
1
1
1
1
1
1
1
1
1
1
1
1
1
1
1
1
1
1
1
1
1
1
1
1
1
1
1
1
1
1
1
1
1
1
1
1
1
1
1
1
1
1
1
1
1
1
1
1
1
1
1
1
1
1
1
1
1
1
1
1
1
1
1
1
1
1
1
1
1
1
1
1
1
1
1
1
1
1
1
1
1
1
1
1
1
1
1
1
1
1
1
1
1
1
1
1
1
1
1
1
1
1
1
1
1
1
1
1
1
1
1
1
1
1
1
1
1
1
1
1
1
1
1
1
1
1
1
1
1
1
1
1
1
1
1
1
1
1
1
1
1
1
1
1
1
1
1
1
1
1
1
1
1
1
1
1
1
1
1
1
1
1
1
1
1
1
1
1
1
1
1
1
1
1
1
1
1
1
1
1
1
1
1
1
1
1
1
1
1
1
1
1
1
1
1
1
1
1
1
1
1
1
1
1
1
1
1
1
1
1
1
1
1
1
1
1
1
1
1
1
1
1
1
1
1
1
1
1
1
1
1
1
1
1
1
1
1
1
1
1
1
1
1
1
1
1
1
1
1
1
1
1
1
1
1
1
1
1
1.16374
0.197344
0.100788
0.0462287
0.0313383
0.0399368
0.0680202
0.124007
0.176233
0.227956
0.315509
0.411597
0.507236
0.579369
0.633185
0.705954
0.800256
0.859192
0.895398
0.945142
0.963381
0.964697
0.963342
0.980015
1.02607
1.08735
1.11478
1.12059
1.11083
1.10268
1.10117
1.12117
1.17829
1.22763
1.23537
1.23378
1.22558
1.22337
1.22896
1.23895
1.25538
1.26803
1.2735
1.27449
1.2806
1.29516
1.31074
1.31487
1.31401
1.30931
1.30131
1.29869
1.30039
1.30527
1.31738
1.32627
1.32616
1.32421
1.32052
1.31785
1.31639
1.31478
1.31244
1.31019
1.31021
1.31482
1.32445
1.33255
1.33353
1.33203
1.32651
1.31617
1.30471
1.30097
1.31127
1.46539
3.42227
7.02645
7.34112
7.06441
6.79146
6.52757
6.43139
6.42922
6.40818
6.32405
6.23027
6.1542
6.09272
6.03994
5.98299
5.91453
5.81886
5.71919
5.63123
5.55914
5.50217
5.4616
5.42638
5.36634
5.29453
5.21361
5.13211
5.06461
5.00764
4.95796
4.91478
4.87328
4.83224
4.7896
4.74519
4.70056
4.65901
4.61621
4.57082
4.52573
4.47975
4.43163
4.3819
4.33277
4.28578
4.24055
4.19582
4.15063
4.10458
4.05801
4.01183
3.96832
3.93192
3.90234
3.87737
3.85787
3.8356
3.80652
3.76998
3.72413
3.67593
3.6328
3.59403
3.55671
3.51884
3.48227
3.45252
3.42823
3.4058
3.3873
3.37535
3.36343
3.34312
3.31658
3.28077
3.22768
3.16247
3.10877
3.07268
3.04812
3.02889
3.01169
2.99775
2.9842
2.96714
2.94576
2.90837
2.85477
2.81383
2.79088
2.77504
2.76251
2.75124
2.74135
2.73075
2.71823
2.69862
2.661
2.60283
2.55515
2.5322
2.51764
2.50497
2.49392
2.48727
2.48648
2.49034
2.48695
2.47372
2.45073
2.40554
2.33105
2.26072
2.22132
2.20181
2.1851
2.09112
0.927878
0.602784
0.363581
0.208194
0.176199
0.187564
0.2072
0.233124
0.235098
0.238349
0.264643
0.315934
0.375485
0.429648
0.488732
0.578847
0.676278
0.752168
0.803438
0.860647
0.912143
0.947264
0.975406
1.00095
1.04084
1.07991
1.09317
1.10573
1.10693
1.10031
1.10666
1.13853
1.17941
1.21348
1.22499
1.2259
1.22726
1.22947
1.23477
1.24176
1.25112
1.26234
1.2689
1.27506
1.28516
1.29644
1.30366
1.30595
1.30599
1.30269
1.29723
1.29795
1.30089
1.30903
1.32047
1.32478
1.32462
1.32244
1.31844
1.31687
1.31657
1.31715
1.31649
1.31529
1.31677
1.32033
1.32152
1.32247
1.32344
1.32237
1.31769
1.30627
1.31592
1.45278
1.99584
2.99356
5.77127
6.89859
6.82967
6.64261
6.42354
6.33341
6.33935
6.37775
6.33153
6.2378
6.14215
6.04939
5.96645
5.89695
5.84914
5.80102
5.72237
5.63529
5.54633
5.47139
5.41173
5.37067
5.33028
5.27896
5.22338
5.16497
5.10288
5.0363
4.9691
4.90673
4.85413
4.80944
4.77052
4.73496
4.7004
4.6635
4.61873
4.57164
4.52296
4.47433
4.42824
4.38361
4.33974
4.29643
4.25278
4.20792
4.16208
4.11684
4.0729
4.02938
3.98586
3.94343
3.9053
3.87423
3.84494
3.81477
3.78565
3.75683
3.72424
3.68909
3.65195
3.61269
3.5722
3.53138
3.49197
3.45754
3.42966
3.40618
3.38507
3.36482
3.34151
3.31676
3.29105
3.26201
3.22493
3.18299
3.13847
3.09279
3.05518
3.03019
3.01217
2.99553
2.97834
2.95916
2.93601
2.90645
2.86787
2.82792
2.79664
2.77533
2.7606
2.74877
2.73698
2.72406
2.70805
2.68683
2.65699
2.6172
2.57573
2.5435
2.52435
2.51169
2.50184
2.49578
2.48934
2.477
2.46132
2.44434
2.42178
2.38708
2.34282
2.29784
2.25161
2.21572
2.19271
2.94865
1.77315
1.14226
0.818917
0.609699
0.441969
0.35245
0.333077
0.345019
0.342817
0.316478
0.317194
0.342004
0.374808
0.404317
0.416122
0.425075
0.462081
0.529396
0.617305
0.706692
0.794425
0.871769
0.935193
0.978776
1.01013
1.0388
1.06459
1.09477
1.12108
1.1286
1.13973
1.16103
1.18444
1.20433
1.21401
1.21755
1.22372
1.22638
1.23267
1.2401
1.24807
1.25811
1.26946
1.28253
1.29054
1.29322
1.29567
1.29849
1.30205
1.30386
1.30529
1.30773
1.31041
1.3144
1.32028
1.32219
1.32203
1.32001
1.31512
1.31134
1.31134
1.31344
1.31786
1.32506
1.33178
1.33262
1.33
1.32254
1.31357
1.31079
1.31154
1.33494
1.48854
2.03358
2.88985
3.03389
3.88377
5.75756
6.7424
6.75868
6.63193
6.46142
6.37715
6.33976
6.32168
6.29902
6.21588
6.10676
5.98445
5.8809
5.80489
5.76165
5.71886
5.65394
5.57971
5.49236
5.40033
5.32882
5.27455
5.2275
5.19294
5.16663
5.12736
5.07464
5.01083
4.9315
4.85149
4.78961
4.74324
4.70415
4.67783
4.65245
4.613
4.57125
4.5253
4.47182
4.418
4.37243
4.33205
4.29247
4.2514
4.20674
4.15835
4.11306
4.0776
4.04571
4.01199
3.97237
3.92536
3.87501
3.8287
3.7901
3.7549
3.72189
3.69582
3.67567
3.65117
3.62419
3.59328
3.5558
3.51447
3.47508
3.4405
3.40873
3.37787
3.34782
3.31938
3.29125
3.26115
3.22932
3.20401
3.18269
3.15981
3.12958
3.08752
3.04299
3.01057
2.988
2.96706
2.94391
2.91775
2.89219
2.87095
2.84778
2.8169
2.78261
2.75803
2.74215
2.7274
2.71089
2.69125
2.66732
2.63855
2.61409
2.59275
2.56697
2.53689
2.51722
2.50559
2.49576
2.48338
2.46542
2.43775
2.40648
2.37918
2.35565
2.33507
2.31567
2.28949
2.25235
2.20873
3.52301
2.52466
1.72198
1.26179
1.07204
0.884652
0.668313
0.550031
0.544277
0.522932
0.461662
0.450054
0.459895
0.458366
0.443503
0.427649
0.424588
0.425782
0.436932
0.472571
0.544589
0.628675
0.719376
0.812511
0.883089
0.913702
0.938639
0.972593
1.0175
1.07012
1.10566
1.13653
1.16141
1.18063
1.19706
1.20884
1.21617
1.21954
1.21921
1.2217
1.22399
1.23466
1.25296
1.27288
1.28724
1.29355
1.29124
1.2842
1.28512
1.28903
1.29363
1.29898
1.30414
1.30874
1.31438
1.31859
1.31913
1.31974
1.31933
1.31606
1.31016
1.30685
1.30822
1.31245
1.32183
1.33117
1.33356
1.33376
1.32998
1.31757
1.30607
1.32109
1.48227
2.07005
2.7962
3.28845
3.20252
3.23044
3.89767
5.40928
6.31749
6.68005
6.52468
6.39905
6.27313
6.23771
6.25012
6.19265
6.10347
5.97631
5.84741
5.77212
5.71981
5.68322
5.63718
5.57707
5.50669
5.41514
5.32426
5.26656
5.21959
5.18671
5.16604
5.12711
5.07737
5.0201
4.94451
4.86142
4.79972
4.7536
4.7114
4.67515
4.6377
4.5961
4.55319
4.50641
4.45378
4.40354
4.36319
4.32755
4.29263
4.2564
4.21595
4.16816
4.11562
4.07163
4.03997
4.0101
3.97744
3.93753
3.88644
3.82861
3.77627
3.73739
3.7088
3.68671
3.66973
3.64947
3.62621
3.60135
3.57124
3.53317
3.49284
3.45511
3.41807
3.37906
3.3379
3.29712
3.25942
3.22732
3.20409
3.18813
3.17687
3.16237
3.14323
3.11732
3.07535
3.02153
2.97881
2.94938
2.92276
2.89911
2.88322
2.86982
2.85473
2.83509
2.80397
2.76393
2.73371
2.71375
2.69406
2.67039
2.64513
2.62903
2.61841
2.60756
2.59278
2.56997
2.5374
2.50561
2.48302
2.46248
2.43889
2.41169
2.38227
2.35426
2.33548
2.32642
2.32097
2.31051
2.29533
2.25119
3.94617
3.09118
2.3873
1.79455
1.45673
1.24795
1.0134
0.878677
0.83022
0.763832
0.637101
0.578392
0.579446
0.576606
0.559288
0.537252
0.513382
0.489853
0.488741
0.498436
0.50016
0.509437
0.531536
0.572278
0.626727
0.681241
0.741914
0.824566
0.913339
0.997755
1.04996
1.08822
1.11473
1.12758
1.14884
1.17845
1.19265
1.19588
1.20318
1.21229
1.22134
1.2395
1.2706
1.29449
1.30165
1.30278
1.29323
1.27963
1.27915
1.28165
1.28575
1.29155
1.29718
1.30252
1.30978
1.31937
1.32539
1.32703
1.32732
1.32368
1.3133
1.30396
1.30231
1.30406
1.31049
1.32064
1.32566
1.32675
1.3262
1.31925
1.33163
1.46636
2.12121
2.8342
3.19506
3.30381
3.26757
3.22335
3.26315
3.76025
5.03743
6.19907
6.45121
6.49726
6.33471
6.25708
6.20937
6.15059
6.08809
5.98816
5.85468
5.75451
5.69598
5.65252
5.6168
5.5672
5.50557
5.42114
5.32452
5.25852
5.21269
5.17828
5.15623
5.12343
5.07808
5.02422
4.94837
4.86248
4.80308
4.76248
4.72425
4.68591
4.64502
4.60079
4.55028
4.49066
4.42793
4.38003
4.34617
4.31604
4.2866
4.25643
4.22376
4.18586
4.13997
4.08805
4.04086
4.00249
3.96529
3.92341
3.87482
3.82236
3.77374
3.73629
3.70848
3.686
3.66793
3.64986
3.62874
3.60606
3.57868
3.54206
3.50036
3.45986
3.41997
3.37763
3.33134
3.2832
3.24152
3.21445
3.19581
3.1822
3.17425
3.16264
3.14599
3.12692
3.09642
3.04187
2.97658
2.93095
2.90701
2.89258
2.8809
2.87134
2.8586
2.84292
2.82071
2.78151
2.73131
2.69429
2.66876
2.64749
2.6344
2.62657
2.62276
2.61686
2.60566
2.58959
2.56121
2.51292
2.46577
2.4345
2.40833
2.38149
2.35635
2.34017
2.33074
2.32455
2.32213
2.31986
2.31373
2.28172
4.31078
3.56307
2.90245
2.26403
1.90621
1.66007
1.3698
1.16204
1.08968
1.00611
0.912303
0.832474
0.739486
0.683531
0.677592
0.669627
0.643911
0.603734
0.571288
0.561397
0.552028
0.534208
0.531514
0.541335
0.556568
0.565872
0.580992
0.623746
0.692427
0.779909
0.873049
0.945945
1.00948
1.04646
1.08789
1.1504
1.17181
1.17882
1.18695
1.1918
1.20095
1.22081
1.25459
1.27841
1.28368
1.28502
1.27984
1.27597
1.27843
1.28267
1.28766
1.29006
1.29248
1.29609
1.30224
1.31266
1.31959
1.32085
1.32109
1.31716
1.30929
1.30374
1.30167
1.30229
1.3076
1.31593
1.31926
1.31939
1.32062
1.3381
1.48815
2.09427
2.95833
3.20257
3.27867
3.3037
3.28814
3.25984
3.229
3.24318
3.58404
4.74504
5.90181
6.34228
6.35437
6.29496
6.19728
6.0985
6.02278
5.94891
5.85233
5.75267
5.68283
5.63098
5.5849
5.53203
5.47592
5.41807
5.35126
5.28371
5.22877
5.18232
5.14645
5.1148
5.07194
5.02113
4.95537
4.87993
4.81679
4.77159
4.73155
4.69049
4.64742
4.60038
4.54481
4.47617
4.40668
4.36163
4.3299
4.30027
4.27271
4.2458
4.21676
4.18528
4.14816
4.10062
4.04405
3.99096
3.94631
3.90463
3.86471
3.8285
3.79458
3.76008
3.72605
3.69769
3.67474
3.65444
3.63354
3.60855
3.57514
3.53453
3.49233
3.45129
3.41094
3.37022
3.3285
3.28727
3.24985
3.21855
3.19497
3.17718
3.16469
3.1548
3.14096
3.12301
3.09415
3.0466
2.98871
2.93773
2.90632
2.88969
2.8774
2.86778
2.85807
2.84452
2.82724
2.79338
2.73598
2.68029
2.65011
2.63694
2.62825
2.62403
2.62584
2.62394
2.61468
2.60026
2.57386
2.51986
2.45434
2.40804
2.37827
2.35603
2.34263
2.33424
2.32937
2.32841
2.33161
2.3297
2.32363
2.29392
4.58624
3.91346
3.32463
2.73717
2.29791
2.01904
1.73649
1.5337
1.38885
1.207
1.09584
1.04665
0.981499
0.885616
0.797937
0.773592
0.75537
0.733242
0.694792
0.656312
0.653057
0.641876
0.608803
0.580705
0.582925
0.591248
0.594718
0.592968
0.596588
0.61142
0.646843
0.700241
0.767812
0.853587
0.93309
1.02817
1.10099
1.1427
1.16738
1.1707
1.17835
1.19507
1.22543
1.25239
1.25877
1.26243
1.26499
1.26773
1.27106
1.27533
1.28263
1.28458
1.28472
1.28678
1.29236
1.30235
1.30934
1.31117
1.31188
1.30822
1.30202
1.30191
1.3045
1.31163
1.31735
1.31648
1.31457
1.31573
1.33431
1.53716
2.12683
2.9772
3.25596
3.28437
3.29928
3.31351
3.29452
3.24367
3.21993
3.19678
3.19252
3.42425
4.35429
5.589
6.18779
6.2194
6.16273
6.06102
5.98797
5.92738
5.86669
5.78986
5.69604
5.6078
5.53896
5.48718
5.45302
5.42367
5.37785
5.31905
5.24602
5.18266
5.13394
5.08871
5.04228
4.99165
4.93876
4.88233
4.82362
4.77092
4.72704
4.68442
4.64095
4.59514
4.5432
4.47811
4.40479
4.35109
4.31507
4.28333
4.25462
4.22859
4.20249
4.17339
4.13928
4.09722
4.0424
3.98033
3.93182
3.89821
3.87052
3.84624
3.82244
3.79587
3.76401
3.72525
3.6858
3.6535
3.62235
3.5865
3.54656
3.50823
3.46968
3.43062
3.39319
3.35992
3.32991
3.30161
3.2733
3.24319
3.21148
3.18421
3.16567
3.15179
3.13124
3.10383
3.06955
3.03203
2.99856
2.96649
2.9313
2.89844
2.87866
2.86591
2.85539
2.8437
2.82147
2.78405
2.73672
2.69146
2.65925
2.64187
2.63109
2.6248
2.62463
2.62282
2.61219
2.59187
2.55523
2.50242
2.44586
2.39858
2.36833
2.35394
2.34489
2.33766
2.33348
2.33324
2.3351
2.32988
2.32284
2.29514
4.81697
4.22203
3.65802
3.11354
2.71583
2.38348
2.05571
1.83921
1.67936
1.50278
1.32416
1.22487
1.15621
1.08186
0.994349
0.901868
0.863956
0.858966
0.838545
0.792765
0.75833
0.743096
0.718917
0.680603
0.646448
0.636802
0.630993
0.626173
0.62085
0.616947
0.617898
0.623128
0.631534
0.65151
0.695111
0.762134
0.864908
0.955646
1.04249
1.11215
1.15076
1.16866
1.19691
1.22612
1.23393
1.23597
1.24185
1.24994
1.25448
1.2622
1.2759
1.28079
1.28089
1.28142
1.28505
1.29027
1.29154
1.29208
1.29236
1.29246
1.29406
1.29647
1.3048
1.31883
1.32132
1.31781
1.31152
1.32628
1.52871
2.27774
2.93543
3.2853
3.3152
3.30315
3.3103
3.30508
3.28478
3.23648
3.19634
3.17162
3.15267
3.14305
3.27996
3.98563
5.26956
5.97676
6.15797
6.06416
6.00023
5.92676
5.87271
5.81562
5.73476
5.62567
5.53564
5.48036
5.43681
5.41377
5.37376
5.32131
5.25475
5.17287
5.10212
5.04758
5.00029
4.96016
4.91914
4.87479
4.82346
4.76746
4.71833
4.67576
4.63497
4.59405
4.54995
4.49607
4.42753
4.3611
4.31503
4.27976
4.2474
4.21587
4.18652
4.1567
4.12428
4.08844
4.045
3.99241
3.9485
3.92017
3.8968
3.87539
3.85097
3.82187
3.78609
3.73904
3.68228
3.62726
3.5839
3.5526
3.52467
3.49097
3.45229
3.41092
3.37683
3.3527
3.3327
3.31374
3.29522
3.27438
3.24801
3.21274
3.16668
3.11913
3.08445
3.05654
3.03407
3.01815
3.00363
2.98743
2.9655
2.93447
2.89806
2.86851
2.84443
2.81798
2.78967
2.76
2.73372
2.71143
2.68766
2.66159
2.64327
2.63277
2.6258
2.61114
2.58784
2.55653
2.51848
2.47918
2.4443
2.41266
2.38295
2.36268
2.35241
2.34517
2.34027
2.33799
2.33421
2.32681
2.3191
2.28895
4.99759
4.45827
3.94278
3.45415
3.05419
2.69542
2.36287
2.1444
1.95655
1.74784
1.56899
1.44049
1.32474
1.24611
1.18422
1.09146
0.991832
0.963939
0.953512
0.927845
0.885278
0.841602
0.80608
0.77858
0.754616
0.7274
0.697666
0.6897
0.684457
0.666068
0.652216
0.651992
0.652149
0.64999
0.643167
0.64674
0.670143
0.714759
0.782937
0.879616
0.979697
1.07165
1.1347
1.19452
1.2261
1.22578
1.22028
1.22217
1.22194
1.23137
1.25673
1.27616
1.28593
1.28875
1.28829
1.28499
1.28173
1.27933
1.27716
1.27747
1.27925
1.28424
1.29803
1.31445
1.31798
1.31724
1.33426
1.52748
2.30332
3.02016
3.28492
3.33446
3.31998
3.30262
3.29263
3.28304
3.26205
3.22345
3.1837
3.15332
3.12974
3.11022
3.1027
3.17765
3.72394
4.81588
5.76697
5.942
5.95413
5.89881
5.86349
5.81391
5.75214
5.66393
5.55475
5.48061
5.4267
5.38518
5.35099
5.29986
5.24002
5.16263
5.08051
5.02015
4.97293
4.93551
4.90601
4.86571
4.81984
4.76781
4.71411
4.66896
4.63016
4.59365
4.55634
4.51327
4.45974
4.39417
4.32465
4.26701
4.22081
4.18329
4.14983
4.12278
4.10051
4.0744
4.04574
4.01337
3.97717
3.94131
3.91023
3.87963
3.84769
3.81398
3.77657
3.73069
3.67332
3.61218
3.56403
3.52853
3.49428
3.45731
3.41918
3.38826
3.36663
3.34879
3.33355
3.32533
3.31828
3.30083
3.27503
3.23001
3.16214
3.09752
3.0559
3.03226
3.01754
3.00904
3.00689
3.00055
2.98605
2.96214
2.91755
2.85825
2.81369
2.78637
2.76492
2.74884
2.73726
2.72892
2.71612
2.69836
2.67131
2.63389
2.59675
2.5692
2.54034
2.5097
2.48367
2.46518
2.45153
2.43657
2.41512
2.38702
2.36711
2.3584
2.35343
2.34633
2.33554
2.32063
2.30118
2.26343
5.15835
4.65591
4.1713
3.7373
3.3478
2.97599
2.65457
2.40507
2.20344
2.00013
1.81674
1.66332
1.50274
1.39336
1.34312
1.27677
1.18798
1.10986
1.06051
1.0351
1.01096
0.971163
0.910915
0.85859
0.842511
0.824879
0.795182
0.768865
0.756902
0.740919
0.709165
0.693772
0.689179
0.67923
0.669651
0.66386
0.658363
0.657492
0.663654
0.685881
0.731639
0.808087
0.899916
0.988995
1.08638
1.15129
1.18271
1.18914
1.19369
1.21882
1.24812
1.26689
1.27821
1.28469
1.28742
1.28784
1.2835
1.27283
1.2691
1.26843
1.26954
1.27474
1.28578
1.30094
1.31319
1.34411
1.55618
2.26406
3.14964
3.29409
3.3305
3.31163
3.29018
3.28843
3.27557
3.26504
3.25388
3.21929
3.17336
3.14233
3.11526
3.09742
3.08527
3.07889
3.12022
3.44801
4.38218
5.43047
5.76595
5.8301
5.83024
5.79116
5.7293
5.66792
5.58258
5.48696
5.41857
5.36564
5.32174
5.27161
5.21683
5.15357
5.07848
5.01035
4.95895
4.91489
4.87519
4.84266
4.80481
4.76165
4.71292
4.66116
4.61995
4.58698
4.5536
4.51753
4.47631
4.42517
4.35698
4.27875
4.21709
4.17598
4.1435
4.11566
4.09111
4.07013
4.04833
4.023
3.98616
3.94044
3.89999
3.86543
3.8325
3.79868
3.76286
3.72353
3.67555
3.61698
3.55845
3.51103
3.47522
3.44178
3.40925
3.38408
3.36433
3.34911
3.34381
3.34287
3.32972
3.30749
3.27612
3.2266
3.15817
3.09313
3.0515
3.02846
3.0139
3.01023
3.02086
3.01336
2.99579
2.97069
2.92279
2.85462
2.80115
2.77161
2.75697
2.75261
2.76315
2.75857
2.74261
2.72092
2.68308
2.62562
2.56627
2.5227
2.49539
2.47751
2.46622
2.46218
2.46267
2.45423
2.44197
2.42384
2.39554
2.36435
2.33803
2.32096
2.30807
2.29364