/*--------------------------------*- C++ -*----------------------------------*\
  =========                 |
  \\      /  F ield         | OpenFOAM: The Open Source CFD Toolbox
   \\    /   O peration     | Website:  https://openfoam.org
    \\  /    A nd           | Version:  7
     \\/     M anipulation  |
\*---------------------------------------------------------------------------*/
FoamFile
{
    version     2.0;
    format      ascii;
    class       volScalarField;
    location    "2.4";
    object      T;
}
// * * * * * * * * * * * * * * * * * * * * * * * * * * * * * * * * * * * * * //

dimensions      [0 0 0 1 0 0 0];

internalField   nonuniform List<scalar> 
16128
(
1
1
1
1
1
1
1
1
1
1
1
1
1
1
1
1
1
1
1
1
1
1
1
1
1.66313
2.60821
2.71811
2.72238
2.72916
2.73377
2.7377
2.74171
2.74705
2.75458
2.76385
2.77313
2.78085
2.78663
2.791
2.79455
2.79747
2.79983
2.80241
2.80667
2.81364
2.82208
2.82938
2.83266
1
1
1
1
1
1
1
1
1
1
1
1
1
1
1
1
1
1
1
1
1
1
1
1
1.64987
2.60289
2.71779
2.7222
2.72893
2.73346
2.73734
2.74136
2.74674
2.7543
2.76357
2.77279
2.78043
2.78614
2.79044
2.79392
2.79678
2.79909
2.80164
2.8059
2.81287
2.82131
2.82858
2.83184
1
1
1
1
1
1
1
1
1
1
1
1
1
1
1
1
1
1
1
1
1
1
1
1
1.6104
2.5895
2.7155
2.72038
2.72754
2.73218
2.73618
2.74033
2.74587
2.75355
2.76285
2.77203
2.7796
2.78526
2.78954
2.793
2.79581
2.79803
2.80053
2.80479
2.81173
2.82011
2.82728
2.8305
1
1
1
1
1
1
1
1
1
1
1
1
1
1
1
1
1
1
1
1
1
1
1
1
1.5555
2.56972
2.71205
2.71753
2.7252
2.72998
2.73415
2.73849
2.74422
2.752
2.76127
2.77037
2.77788
2.78356
2.78788
2.7914
2.79422
2.79641
2.79888
2.80316
2.8101
2.81841
2.82544
2.8286
1
1
1
1
1
1
1
1
1
1
1
1
1
1
1
1
1
1
1
1
1
1
1
1
1.48639
2.54453
2.70818
2.71373
2.72173
2.72675
2.73124
2.73589
2.74186
2.74973
2.75892
2.76791
2.77537
2.78112
2.78558
2.78923
2.79209
2.79422
2.79661
2.80088
2.8078
2.81611
2.82305
2.82622
1
1
1
1
1
1
1
1
1
1
1
1
1
1
1
1
1
1
1
1
1
1
1
1
1.40114
2.51068
2.70416
2.70963
2.71786
2.72313
2.72792
2.7328
2.73889
2.74672
2.75574
2.76454
2.77195
2.77777
2.78243
2.78629
2.78928
2.79141
2.79371
2.79789
2.80476
2.81308
2.81995
2.82317
1
1
1
1
1
1
1
1
1
1
1
1
1
1
1
1
1
1
1
1
1
1
1
1
1.29656
2.46184
2.69928
2.70496
2.7137
2.71918
2.72419
2.7292
2.73533
2.74308
2.75191
2.76051
2.76781
2.77369
2.77856
2.78271
2.78592
2.78811
2.79031
2.79433
2.80104
2.80929
2.81604
2.81923
1
1
1
1
1
1
1
1
1
1
1
1
1
1
1
1
1
1
1
1
1
1
1
1
1.1762
2.39747
2.69334
2.69974
2.709
2.71459
2.71978
2.725
2.73125
2.73894
2.74753
2.75582
2.76284
2.76858
2.77354
2.77797
2.78147
2.78381
2.78595
2.78977
2.79629
2.80453
2.81132
2.8146
1
1
1
1
1
1
1
1
1
1
1
1
1
1
1
1
1
1
1
1
1
1
1
1
1.04806
2.32742
2.69147
2.69686
2.70451
2.7099
2.715
2.72031
2.72663
2.73425
2.74257
2.75044
2.75704
2.76251
2.76745
2.77213
2.776
2.77857
2.78064
2.78418
2.79035
2.79841
2.80518
2.80847
1
1
1
1
1
1
1
1
1
1
1
1
1
1
1
1
1
1
1
1
1
1
1
1
1.00126
2.2461
2.686
2.69233
2.69886
2.70465
2.70996
2.71557
2.722
2.7294
2.73726
2.74462
2.75068
2.75568
2.76038
2.76513
2.76934
2.77219
2.77424
2.77751
2.78318
2.79074
2.79746
2.80068
1
1
1
1
1
1
1
1
1
1
1
1
1
1
1
1
1
1
1
1
1
1
1
1
1
2.13429
2.67698
2.68986
2.69524
2.70109
2.70659
2.71244
2.71894
2.72602
2.73302
2.73914
2.74413
2.74832
2.75251
2.75711
2.76147
2.76447
2.76625
2.76893
2.77375
2.78085
2.7876
2.79106
1
1
1
1
1
1
1
1
1
1
1
1
1
1
1
1
1
1
1
1
1
1
1
1
1
1.98774
2.65241
2.68349
2.69024
2.69709
2.70335
2.70951
2.71579
2.72203
2.72787
2.73287
2.73678
2.73996
2.74338
2.74757
2.75191
2.75504
2.75665
2.75883
2.7626
2.76863
2.77459
2.77721
1
1
1
1
1
1
1
1
1
1
1
1
1
1
1
1
1
1
1
1
1
1
1
1
1
1.81095
2.60517
2.67046
2.68027
2.69005
2.69842
2.70585
2.71258
2.71849
2.72335
2.72699
2.72949
2.73153
2.73393
2.73736
2.74128
2.74413
2.74512
2.74577
2.74704
2.75158
2.7567
2.76002
1
1
1
1
1
1
1
1
1
1
1
1
1
1
1
1
1
1
1
1
1
1
1
1
1
1.58351
2.5198
2.65042
2.66594
2.67831
2.68869
2.69801
2.70603
2.71251
2.7173
2.72035
2.72198
2.72293
2.72422
2.72658
2.72943
2.73129
2.73101
2.73016
2.72977
2.7321
2.73368
2.73102
1
1
1
1
1
1
1
1
1
1
1
1
1
1
1
1
1
1
1
1
1
1
1
1
1
1.28004
2.40832
2.64182
2.64686
2.66027
2.67338
2.68502
2.69476
2.70261
2.7083
2.71173
2.71324
2.71385
2.71446
2.7154
2.71663
2.71704
2.71526
2.71153
2.70628
2.70083
2.69614
2.69069
1
1
1
1
1
1
1
1
1
1
1
1
1
1
1
1
1
1
1
1
1
1
1
1
1
1.02291
2.30684
2.64648
2.64168
2.64746
2.65606
2.66712
2.67796
2.68743
2.69484
2.6997
2.70218
2.70316
2.70308
2.70298
2.70264
2.7011
2.69673
2.68867
2.67774
2.66708
2.66084
2.6674
1
1
1
1
1
1
1
1
1
1
1
1
1
1
1
1
1
1
1
1
1
1
1
1
1
1.00011
2.16057
2.63279
2.63244
2.63609
2.64211
2.65041
2.65978
2.66925
2.67782
2.6842
2.68826
2.69016
2.69018
2.68944
2.68755
2.68386
2.67663
2.66463
2.64643
2.61872
2.561
2.44299
1
1
1
1
1
1
1
1
1
1
1
1
1
1
1
1
1
1
1
1
1
1
1
1
1
0.999999
1.95091
2.61258
2.63412
2.6376
2.64123
2.64328
2.64726
2.65319
2.66032
2.66647
2.67141
2.67433
2.67485
2.67376
2.67066
2.66494
2.65472
2.63759
2.61027
2.56219
2.49097
2.3038
1
1
1
1
1
1
1
1
1
1
1
1
1
1
1
1
1
1
1
1
1
1
1
1
1
1
1.63944
2.51766
2.62508
2.63342
2.63736
2.63885
2.6404
2.64267
2.64644
2.64997
2.65385
2.65663
2.65726
2.65591
2.65196
2.64446
2.63163
2.61004
2.576
2.51967
2.42716
2.22903
1
1
1
1
1
1
1
1
1
1
1
1
1
1
1
1
1
1
1
1
1
1
1
1
1
1
1.23662
2.37548
2.62166
2.62124
2.62623
2.63134
2.63328
2.63418
2.63519
2.63583
2.63722
2.63843
2.63822
2.63627
2.63146
2.62253
2.6076
2.58333
2.54434
2.48561
2.38147
2.2068
1
1
1
1
1
1
1
1
1
1
1
1
1
1
1
1
1
1
1
1
1
1
1
1
1
1
1.01499
2.24531
2.60353
2.60165
2.60879
2.61786
2.62318
2.62539
2.62511
2.62416
2.62309
2.62178
2.61957
2.61578
2.60946
2.59911
2.58262
2.55705
2.51689
2.45803
2.35603
2.21848
1
1
1
1
1
1
1
1
1
1
1
1
1
1
1
1
1
1
1
1
1
1
1
1
1
1
1.00003
2.01543
2.5683
2.59081
2.59965
2.60654
2.61121
2.61459
2.61455
2.61334
2.6109
2.60749
2.60286
2.59657
2.58797
2.5758
2.55793
2.53168
2.49255
2.43557
2.34451
2.23266
1
1
1
1
1
1
1
1
1
1
1
1
1
1
1
1
1
1
1
1
1
1
1
1
1
1
1
1.63571
2.48035
2.57992
2.5881
2.59399
2.59791
2.60119
2.6021
2.60122
2.59868
2.59438
2.58803
2.57935
2.56797
2.55335
2.53379
2.50724
2.46942
2.41605
2.33783
2.24697
1
1
1
1
1
1
1
1
1
1
1
1
1
1
1
1
1
1
1
1
1
1
1
1
1
1
1
1.14969
2.33187
2.58214
2.57661
2.5784
2.58198
2.58509
2.58695
2.58681
2.58513
2.58115
2.5743
2.56434
2.55084
2.53394
2.51236
2.48534
2.44782
2.39865
2.33264
2.25729
1
1
1
1
1
1
1
1
1
1
1
1
1
1
1
1
1
1
1
1
1
1
1
1
1
1
1
1.00556
2.1694
2.55195
2.55404
2.5607
2.56562
2.56765
2.56956
2.57021
2.56926
2.56617
2.55994
2.54995
2.53562
2.51716
2.49411
2.46586
2.42848
2.38312
2.32748
2.26321
1
1
1
1
1
1
1
1
1
1
1
1
1
1
1
1
1
1
1
1
1
1
1
1
1
1
1
0.999983
1.81021
2.49247
2.53801
2.54716
2.55227
2.55313
2.55384
2.55371
2.55265
2.54992
2.54446
2.53526
2.5215
2.50287
2.4792
2.4502
2.41339
2.37081
2.32245
2.2665
1
1
1
1
1
1
1
1
1
1
1
1
1
1
1
1
1
1
1
1
1
1
1
1
1
1
1
0.999995
1.28167
2.35991
2.54258
2.5365
2.53679
2.53731
2.53694
2.53601
2.53448
2.53181
2.52704
2.51899
2.50662
2.4892
2.46611
2.43745
2.40154
2.36172
2.31752
2.26703
1
1
1
1
1
1
1
1
1
1
1
1
1
1
1
1
1
1
1
1
1
1
1
1
1
1
1
0.999999
1.01914
2.19391
2.51632
2.51579
2.51948
2.52064
2.52009
2.51883
2.51676
2.51373
2.509
2.50174
2.4908
2.4752
2.45367
2.42665
2.39269
2.35581
2.31441
2.26889
1
1
1
1
1
1
1
1
1
1
1
1
1
1
1
1
1
1
1
1
1
1
1
1
1
1
1
1
1.00003
1.79499
2.45419
2.50331
2.50579
2.50682
2.50612
2.50405
2.50089
2.49675
2.49125
2.48385
2.47374
2.45978
2.44042
2.41595
2.3851
2.35153
2.31249
2.27085
1
1
1
1
1
1
1
1
1
1
1
1
1
1
1
1
1
1
1
1
1
1
1
1
1
1
1
1
0.999999
1.20365
2.31203
2.50682
2.49551
2.49284
2.49116
2.48856
2.48494
2.48028
2.47421
2.46644
2.45631
2.4435
2.42639
2.40462
2.37771
2.34729
2.31124
2.27332
1
1
1
1
1
1
1
1
1
1
1
1
1
1
1
1
1
1
1
1
1
1
1
1
1
1
1
1
1
1.00947
2.11964
2.47088
2.47253
2.47671
2.47543
2.47313
2.46971
2.46481
2.45823
2.44994
2.43966
2.42707
2.41145
2.39202
2.36886
2.34141
2.30905
2.27436
1
1
1
1
1
1
1
1
1
1
1
1
1
1
1
1
1
1
1
1
1
1
1
1
1
1
1
1
1
0.999995
1.63162
2.37777
2.46008
2.46439
2.46313
2.4607
2.45691
2.45149
2.44421
2.43518
2.42439
2.4117
2.39673
2.37898
2.35846
2.33378
2.30552
2.27391
1
1
1
1
1
1
1
1
1
1
1
1
1
1
1
1
1
1
1
1
1
1
1
1
1
1
1
1
1
0.999996
1.10505
2.20531
2.45459
2.44902
2.44849
2.44662
2.44319
2.43772
2.43016
2.42078
2.40972
2.3971
2.38263
2.36613
2.34724
2.32499
2.30009
2.27162
1
1
1
1
1
1
1
1
1
1
1
1
1
1
1
1
1
1
1
1
1
1
1
1
1
1
1
1
1
0.999999
1.00225
1.8527
2.39001
2.42483
2.42919
2.43078
2.42922
2.42456
2.41714
2.40768
2.39654
2.38396
2.36981
2.35396
2.33605
2.31571
2.29313
2.26753
1
1
1
1
1
1
1
1
1
1
1
1
1
1
1
1
1
1
1
1
1
1
1
1
1
1
1
1
1
1
0.999997
1.22235
2.23043
2.42226
2.41574
2.41657
2.41489
2.4105
2.40368
2.39476
2.38394
2.37152
2.35761
2.34222
2.3251
2.30628
2.28545
2.26228
1
1
1
1
1
1
1
1
1
1
1
1
1
1
1
1
1
1
1
1
1
1
1
1
1
1
1
1
1
1
0.999999
1.01095
1.97125
2.37973
2.39458
2.39664
2.3959
2.39339
2.38851
2.38111
2.37125
2.35933
2.34584
2.33091
2.31457
2.29686
2.2774
2.256
1
1
1
1
1
1
1
1
1
1
1
1
1
1
1
1
1
1
1
1
1
1
1
1
1
1
1
1
1
1
1
1.00002
1.32936
2.23904
2.39083
2.38398
2.38174
2.37861
2.37383
2.36701
2.35797
2.34684
2.33389
2.31949
2.30389
2.28706
2.26883
2.24894
1
1
1
1
1
1
1
1
1
1
1
1
1
1
1
1
1
1
1
1
1
1
1
1
1
1
1
1
1
1
1
1
1.0248
2.02685
2.3586
2.36755
2.3658
2.36258
2.35797
2.35164
2.34338
2.33318
2.32108
2.30754
2.29286
2.27701
2.25986
2.2414
1
1
1
1
1
1
1
1
1
1
1
1
1
1
1
1
1
1
1
1
1
1
1
1
1
1
1
1
1
1
1
1
1.0001
1.4145
2.23017
2.3587
2.35263
2.34878
2.34383
2.33747
2.32953
2.31999
2.30892
2.2963
2.28233
2.2672
2.25086
2.2335
1
1
1
1
1
1
1
1
1
1
1
1
1
1
1
1
1
1
1
1
1
1
1
1
1
1
1
1
1
1
1
1
1
1.04036
2.02753
2.33635
2.33765
2.3336
2.32879
2.32269
2.31527
2.30637
2.29609
2.28443
2.27137
2.2571
2.24174
2.22541
1
1
1
1
1
1
1
1
1
1
1
1
1
1
1
1
1
1
1
1
1
1
1
1
1
1
1
1
1
1
1
1
1
1.00031
1.42368
2.20616
2.3273
2.31908
2.31496
2.30924
2.30221
2.29379
2.28418
2.27341
2.26133
2.24794
2.23343
2.21787
1
1
1
1
1
1
1
1
1
1
1
1
1
1
1
1
1
1
1
1
1
1
1
1
1
1
1
1
1
1
1
1
1
1
1.04299
1.99321
2.30595
2.30539
2.30042
2.29485
2.28828
2.28081
2.27224
2.26247
2.25136
2.23893
2.22521
2.21028
1
1
1
1
1
1
1
1
1
1
1
1
1
1
1
1
1
1
1
1
1
1
1
1
1
1
1
1
1
1
1
1
1
1
1.00038
1.39538
2.16696
2.29453
2.28599
2.2813
2.27543
2.26898
2.26137
2.25243
2.24209
2.23046
2.21748
2.2032
1
1
1
1
1
1
1
1
1
1
1
1
1
1
1
1
1
1
1
1
1
1
1
1
1
1
1
1
1
1
1
1
1
1
1
1.03649
1.90641
2.26296
2.27553
2.26882
2.26278
2.25685
2.24992
2.24174
2.23225
2.22143
2.20929
2.19598
1
1
1
1
1
1
1
1
1
1
1
1
1
1
1
1
1
1
1
1
1
1
1
1
1
1
1
1
1
1
1
1
1
1
1
1.00033
1.31199
2.10114
2.26255
2.25559
2.25221
2.24647
2.23936
2.2313
2.22238
2.21239
2.20116
2.18878
1
1
1
1
1
1
1
1
1
1
1
1
1
1
1
1
1
1
1
1
1
1
1
1
1
1
1
1
1
1
1
1
1
1
1
1
1.02158
1.73968
2.19801
2.2476
2.24015
2.23358
2.22693
2.21965
2.21157
2.20263
2.19256
2.18104
1
1
1
1
1
1
1
1
1
1
1
1
1
1
1
1
1
1
1
1
1
1
1
1
1
1
1
1
1
1
1
1
1
1
1
1
1.00017
1.18718
2.00949
2.23564
2.22464
2.21915
2.21402
2.20833
2.20145
2.19338
2.1842
2.17355
1
1
1
1
1
1
1
1
1
1
1
1
1
1
1
1
1
1
1
1
1
1
1
1
1
1
1
1
1
1
1
1
1
1
1
1
1
1.00751
1.53333
2.11895
2.20972
2.20344
2.19981
2.19522
2.18933
2.18201
2.17355
2.16414
1
1
1
1
1
1
1
1
1
1
1
1
1
1
1
1
1
1
1
1
1
1
1
1
1
1
1
1
1
1
1
1
1
1
1
1
1
1.00004
1.08208
1.86716
2.19146
2.19352
2.18916
2.18331
2.1771
2.17031
2.16263
2.15424
1
1
1
1
1
1
1
1
1
1
1
1
1
1
1
1
1
1
1
1
1
1
1
1
1
1
1
1
1
1
1
1
1
1
1
1
1
1
1.0016
1.32359
2.03134
2.1808
2.17242
2.16719
2.16179
2.15602
2.14964
2.14239
1
1
1
1
1
1
1
1
1
1
1
1
1
1
1
1
1
1
1
1
1
1
1
1
1
1
1
1
1
1
1
1
1
1
1
1
1
1
1.00001
1.02492
1.64056
2.1049
2.16405
2.15699
2.15096
2.14538
2.13926
2.13233
1
1
1
1
1
1
1
1
1
1
1
1
1
1
1
1
1
1
1
1
1
1
1
1
1
1
1
1
1
1
1
1
1
1
1
1
1
1
1
1.00026
1.1366
1.88148
2.14789
2.1475
2.14162
2.13554
2.12878
2.12144
1
1
1
1
1
1
1
1
1
1
1
1
1
1
1
1
1
1
1
1
1
1
1
1
1
1
1
1
1
1
1
1
1
1
1
1
1
1
1
1
1.00425
1.37003
2.00333
2.13433
2.12908
2.12262
2.11627
2.10952
1
1
1
1
1
1
1
1
1
1
1
1
1
1
1
1
1
1
1
1
1
1
1
1
1
1
1
1
1
1
1
1
1
1
1
1
1
1
1
1
1.00003
1.03498
1.63142
2.0643
2.12254
2.11357
2.10605
2.09965
1
1
1
1
1
1
1
1
1
1
1
1
1
1
1
1
1
1
1
1
1
1
1
1
1
1
1
1
1
1
1
1
1
1
1
1
1
1
1
1
1
1.00046
1.13839
1.83413
2.09196
2.1079
2.09984
2.09203
1
1
1
1
1
1
1
1
1
1
1
1
1
1
1
1
1
1
1
1
1
1
1
1
1
1
1
1
1
1
1
1
1
1
1
1
1
1
1
1
1
1
1.00458
1.32925
1.93683
2.09234
2.08963
2.0825
1
1
1
1
1
1
1
1
1
1
1
1
1
1
1
1
1
1
1
1
1
1
1
1
1
1
1
1
1
1
1
1
1
1
1
1
1
1
1
1
1
1
1.00003
1.02736
1.53642
2.0022
2.08011
2.07344
1
1
1
1
1
1
1
1
1
1
1
1
1
1
1
1
1
1
1
1
1
1
1
1
1
1
1
1
1
1
1
1
1
1
1
1
1
1
1
1
1
1
1
1.00035
1.09488
1.72298
2.03005
2.06944
1
1
1
1
1
1
1
1
1
1
1
1
1
1
1
1
1
1
1
1
1
1
1
1
1
1
1
1
1
1
1
1
1
1
1
1
1
1
1
1
1
1
1
1
1.00246
1.22388
1.84113
2.04108
1
1
1
1
1
1
1
1
1
1
1
1
1
1
1
1
1
1
1
1
1
1
1
1
1
1
1
1
1
1
1
1
1
1
1
1
1
1
1
1
1
1
1
1
1.00001
1.01229
1.38665
1.90837
1
1
1
1
1
1
1
1
1
1
1
1
1
1
1
1
1
1
1
1
1
1
1
1
1
1
1
1
1
1
1
1
1
1
1
1
1
1
1
1
1
1
1
1
1
1.00012
1.04256
1.54377
1
1
1
1
1
1
1
1
1
1
1
1
1
1
1
1
1
1
1
1
1
1
1
1
1
1
1
1
1
1
1
1
1
1
1
1
1
1
1
1
1
1
1
1
1
1
1.00072
1.10607
1
1
1
1
1
1
1
1
1
1
1
1
1
1
1
1
1
1
1
1
1
1
1
1
1
1
1
1
1
1
1
1
1
1
1
1
1
1
1
1
1
1
1
1
1
1
1
1.00313
1
1
1
1
1
1
1
1
1
1
1
1
1
1
1
1
1
1
1
1
1
1
1
1
1
1
1
1
1
1
1
1
1
1
1
1
1
1
1
1
1
1
1
1
1
1
1
1.00002
1
1
1
1
1
1
1
1
1
1
1
1
1
1
1
1
1
1
1
1
1
1
1
1
1
1
1
1
1
1
1
1
1
1
1
1
1
1
1
1
1
1
1
1
1
1
1
1
1
1
1
1
1
1
1
1
1
1
1
1
1
1
1
1
1
1
1
1
1
1
1
1
1
1
1
1
1
1
1
1
1
1
1
1
1
1
1
1
1
1
1
1
1
1
1
1
1
1
1
1
1
1
1
1
1
1
1
1
1
1
1
1
1
1
1
1
1
1
1
1
1
1
1
1
1
1
1
1
1
1
1
1
1
1
1
1
1
1
1
1
1
1
1
1
1
1
1
1
1
1
1
1
1
1
1
1
1
1
1
1
1
1
1
1
1
1
1
1
1
1
1
1
1
1
1
1
1
1
1
1
1
1
1
1
1
1
1
1
1
1
1
1
1
1
1
1
1
1
1
1
1
1
1
1
1
1
1
1
1
1
1
1
1
1
1
1
1
1
1
1
1
1
1
1
1
1
1
1
1
1
1
1
1
1
1
1
1
1
1
1
1
1
1
1
1
1
1
1
1
1
1
1
1
1
1
1
1
1
1
1
1
1
1
1
1
1
1
1
1
1
1
1
1
1
1
1
1
1
1
1
1
1
1
1
1
1
1
1
1
1
1
1
1
1
1
1
1
1
1
1
1
1
1
1
1
1
1
1
1
1
1
1
1
1
1
1
1
1
1
1
1
1
1
1
1
1
1
1
1
1
1
1
1
1
1
1
1
1
1
1
1
1
1
1
1
1
1
1
1
1
1
1
1
1
1
1
1
1
1
1
1
1
1
1
1
1
1
1
1
1
1
1
1
1
1
1
1
1
1
1
1
1
1
1
1
1
1
1
1
1
1
1
1
1
1
1
1
1
1
1
1
1
1
1
1
1
1
1
1
1
1
1
1
1
1
1
1
1
1
1
1
1
1
1
1
1
1
1
1
1
1
1
1
1
1
1
1
1
1
1
1
1
1
1
1
1
1
1
1
1
1
1
1
1
1
1
1
1
1
1
1
1
1
1
1
1
1
1
1
1
1
1
1
1
1
1
1
1
1
1
1
1
1
1
1
1
1
1
1
1
1
1
1
1
1
1
1
1
1
1
1
1
1
1
1
1
1
1
1
1
1
1
1
1
1
1
1
1
1
1
1
1
1
1
1
1
1
1
1
1
1
1
1
1
1
1
1
1
1
1
1
1
1
1
1
1
1
1
1
1
1
1
1
1
1
1
1
1
1
1
1
1
1
1
1
1
1
1
1
1
1
1
1
1
1
1
1
1
1
1
1
1
1
1
1
1
1
1
1
1
1
1
1
1
1
1
1
1
1
1
1
1
1
1
1
1
1
1
1
1
1
1
1
1
1
1
1
1
1
1
1
1
1
1
1
1
1
1
1
1
1
1
1
1
1
1
1
1
1
1
1
1
1
1
1
1
1
1
1
1
1
1
1
1
1
1
1
1
1
1
1
1
1
1
1
1
1
1
1
1
1
1
1
1
1
1
1
1
1
1
1
1
1
1
1
1
1
1
1
1
1
1
1
1
1
1
1
1
1
1
1
1
1
1
1
1
1
1
1
1
1
1
1
1
1
1
1
1
1
1
1
1
1
1
1
1
1
1
1
1
1
1
1
1
1
1
1
1
1
1
1
1
1
1
1
1
1
1
1
1
1
1
1
1
1
1
1
1
1
1
1
1
1
1
1
1
1
1
1.55311
0.889558
0.861195
0.884426
0.886507
0.92954
1.04426
1.15556
1.18364
1.21111
1.28419
1.39127
1.51667
1.57286
1.56918
1.56484
1.57186
1.59227
1.63343
1.68931
1.69124
1.66329
1.61646
1.60178
1.61532
1.65748
1.68229
1.68353
1.67019
1.65037
1.63694
1.63877
1.66554
1.69407
1.69719
1.69396
1.68286
1.67544
1.67506
1.67916
1.68793
1.69092
1.68946
1.68397
1.68125
1.68262
1.68754
1.68932
1.68871
1.68549
1.67927
1.67571
1.67524
1.67653
1.6825
1.68762
1.68807
1.68796
1.68675
1.68495
1.6834
1.68162
1.67917
1.67641
1.67453
1.67418
1.67545
1.67788
1.67846
1.67835
1.67742
1.67502
1.67162
1.66872
1.67251
1.73031
2.29181
2.83442
2.81171
2.77139
2.73599
2.70023
2.67517
2.66278
2.65293
2.63972
2.62846
2.6186
2.60805
2.59616
2.58277
2.56884
2.55376
2.54005
2.52833
2.51817
2.50943
2.50309
2.4978
2.48968
2.48018
2.46886
2.45637
2.44474
2.43415
2.42503
2.4179
2.41208
2.40686
2.40131
2.39501
2.38805
2.38109
2.37388
2.36665
2.36003
2.35375
2.34735
2.34065
2.33383
2.32705
2.32016
2.31294
2.30525
2.29718
2.28895
2.28083
2.27325
2.26684
2.26137
2.25632
2.2518
2.24638
2.23956
2.2317
2.22282
2.214
2.20624
2.1991
2.19186
2.18415
2.17639
2.16977
2.16422
2.15916
2.15497
2.15207
2.14913
2.14452
2.13887
2.13189
2.1221
2.1104
2.10086
2.09451
2.09029
2.08696
2.08384
2.08116
2.0784
2.07475
2.06997
2.06183
2.05047
2.04185
2.03725
2.03492
2.03425
2.03427
2.03494
2.03582
2.03615
2.03501
2.02929
2.01828
2.00893
2.00469
2.00215
1.99998
1.99823
1.99755
1.99802
1.99975
1.99936
1.99672
1.99143
1.9805
1.96219
1.94393
1.93212
1.92585
1.9182
1.80343
1.46299
1.33065
1.15429
1.00757
1.01715
1.0612
1.06758
1.05405
1.03805
1.05157
1.10808
1.18466
1.24074
1.27268
1.29924
1.34436
1.39809
1.45119
1.49944
1.54499
1.56488
1.56097
1.55685
1.56177
1.58704
1.61492
1.61863
1.61726
1.60853
1.59889
1.60031
1.6166
1.64026
1.6539
1.6545
1.65115
1.64893
1.64901
1.65243
1.65685
1.6589
1.65912
1.65748
1.6567
1.65848
1.66307
1.66585
1.66596
1.66501
1.66182
1.65823
1.65813
1.65902
1.6628
1.66822
1.67059
1.67076
1.67036
1.66901
1.66794
1.66728
1.66653
1.6648
1.66265
1.66187
1.6619
1.66176
1.66206
1.66315
1.66376
1.66317
1.65923
1.6634
1.71418
1.89105
2.12689
2.59347
2.70977
2.69976
2.67832
2.65345
2.63296
2.62533
2.62453
2.61762
2.60663
2.59542
2.58217
2.56734
2.55333
2.54309
2.53448
2.52367
2.5126
2.50109
2.49101
2.4829
2.47753
2.4726
2.46628
2.45878
2.44985
2.43945
2.42805
2.41699
2.40749
2.40019
2.39445
2.38949
2.38463
2.37937
2.3733
2.366
2.35877
2.35188
2.34548
2.33963
2.33397
2.32823
2.32229
2.31592
2.30894
2.30139
2.29362
2.2859
2.27828
2.27081
2.26359
2.25688
2.25092
2.24481
2.2382
2.23168
2.22548
2.21904
2.21245
2.20561
2.19832
2.19057
2.18242
2.17423
2.1668
2.16058
2.15526
2.15048
2.14595
2.14093
2.13576
2.13058
2.12497
2.11819
2.11072
2.10285
2.09488
2.08837
2.084
2.08079
2.07769
2.07428
2.07029
2.06537
2.05905
2.05076
2.04232
2.03613
2.03265
2.03131
2.0312
2.03138
2.03161
2.03135
2.02974
2.02563
2.01872
2.01083
2.00462
2.00106
1.99883
1.99721
1.9965
1.99579
1.99382
1.99101
1.98755
1.98224
1.97348
1.96204
1.95006
1.93745
1.92741
1.91812
1.92973
1.70378
1.52114
1.39111
1.30194
1.21199
1.13209
1.08795
1.09372
1.0917
1.06822
1.06465
1.07959
1.10139
1.12938
1.14362
1.148
1.17043
1.21228
1.26843
1.32961
1.38852
1.43347
1.46001
1.47578
1.48946
1.5037
1.51676
1.53106
1.54093
1.54347
1.54854
1.55921
1.57113
1.57692
1.57888
1.58083
1.58543
1.58998
1.59546
1.59787
1.59779
1.59803
1.60024
1.60561
1.61128
1.61479
1.61639
1.61667
1.61693
1.61711
1.61768
1.61907
1.62066
1.62231
1.62441
1.62543
1.62565
1.62565
1.62527
1.62499
1.62541
1.62655
1.62759
1.62914
1.63108
1.63133
1.63042
1.62825
1.62606
1.626
1.62589
1.63649
1.6924
1.85785
2.05092
2.05912
2.2037
2.47117
2.58657
2.612
2.60041
2.57869
2.56708
2.56138
2.55932
2.55763
2.54882
2.53549
2.51875
2.50367
2.49253
2.48612
2.48046
2.47263
2.46416
2.45456
2.44444
2.43693
2.43142
2.42635
2.42219
2.41838
2.41221
2.404
2.39456
2.38351
2.37287
2.36504
2.35932
2.35429
2.35058
2.34666
2.34069
2.33481
2.32891
2.32237
2.316
2.31084
2.30626
2.30152
2.29621
2.28994
2.28264
2.27541
2.26949
2.26409
2.25846
2.25198
2.24426
2.23569
2.22727
2.21979
2.21285
2.20633
2.20109
2.19703
2.19234
2.18722
2.18127
2.17388
2.16551
2.15732
2.14999
2.14325
2.13675
2.13044
2.12457
2.11903
2.11337
2.10751
2.10301
2.09932
2.09558
2.09073
2.0836
2.07581
2.07013
2.06621
2.06246
2.05811
2.05311
2.04802
2.0435
2.03861
2.03245
2.02615
2.02261
2.02144
2.02081
2.02009
2.01887
2.01662
2.01282
2.00916
2.00577
2.00111
1.99507
1.99119
1.98904
1.98731
1.98501
1.98155
1.97603
1.96939
1.96326
1.95773
1.95227
1.94661
1.93918
1.92897
1.91547
1.99726
1.83542
1.65945
1.52454
1.46835
1.40473
1.31134
1.23681
1.2252
1.20279
1.15145
1.13627
1.14264
1.1421
1.13448
1.1223
1.11577
1.11526
1.12029
1.14333
1.19072
1.2451
1.29996
1.34967
1.38148
1.39028
1.39746
1.41171
1.43453
1.46098
1.47818
1.49179
1.50187
1.5079
1.51108
1.51452
1.52004
1.52572
1.53073
1.53368
1.53324
1.53362
1.53649
1.54327
1.55159
1.55826
1.56008
1.55925
1.55936
1.55981
1.56081
1.56318
1.56648
1.56943
1.5713
1.57177
1.57168
1.57201
1.57254
1.57304
1.57327
1.57362
1.57506
1.5771
1.58003
1.58318
1.58466
1.58518
1.58468
1.58174
1.57832
1.58546
1.64363
1.81855
1.98031
2.05754
2.03412
2.02846
2.14196
2.35607
2.47828
2.52611
2.51333
2.50336
2.49104
2.48754
2.48897
2.48205
2.47165
2.45742
2.44315
2.43515
2.42955
2.42534
2.41969
2.4129
2.40627
2.39804
2.38974
2.38475
2.38003
2.37627
2.37375
2.36868
2.36218
2.35479
2.3451
2.33463
2.32726
2.32196
2.31692
2.31234
2.30732
2.30167
2.29614
2.2906
2.28471
2.27945
2.27563
2.27234
2.26892
2.26503
2.26017
2.25382
2.24628
2.23969
2.23483
2.23021
2.2252
2.21912
2.21116
2.20174
2.19279
2.18575
2.18022
2.1758
2.17245
2.16877
2.16462
2.16
2.15414
2.1466
2.13851
2.13089
2.12353
2.11599
2.10816
2.10045
2.09334
2.08725
2.08287
2.07995
2.0782
2.07617
2.07343
2.06953
2.06277
2.0536
2.04637
2.04169
2.03743
2.03345
2.03073
2.02836
2.02549
2.02165
2.01583
2.00879
2.00443
2.00251
2.00084
1.99842
1.99551
1.99421
1.99362
1.99275
1.99046
1.98593
1.97909
1.97241
1.96781
1.96373
1.95905
1.95357
1.94764
1.94202
1.93822
1.93609
1.93439
1.93073
1.92559
1.91314
2.05169
1.91932
1.78841
1.65642
1.57205
1.51312
1.43309
1.37933
1.35712
1.32274
1.25039
1.20996
1.21004
1.20871
1.2002
1.18758
1.16953
1.14908
1.14691
1.15121
1.1527
1.15988
1.17455
1.20043
1.23294
1.26085
1.28836
1.32563
1.3644
1.40028
1.42331
1.44022
1.45096
1.45441
1.45992
1.4697
1.47847
1.48361
1.49006
1.49524
1.49781
1.50176
1.51033
1.51925
1.52396
1.52579
1.52472
1.52116
1.5206
1.5205
1.52104
1.52356
1.52709
1.53023
1.53287
1.53521
1.53647
1.53694
1.53724
1.53681
1.5352
1.53392
1.53411
1.53547
1.53805
1.54144
1.54368
1.54463
1.54471
1.54397
1.54951
1.59785
1.79127
1.94926
2.01204
2.02193
2.01292
2.00112
2.00688
2.09351
2.28303
2.42522
2.45997
2.47334
2.45736
2.44944
2.44337
2.4359
2.42867
2.41839
2.40497
2.39551
2.3904
2.38611
2.38187
2.37578
2.3692
2.3612
2.35199
2.34588
2.34131
2.33735
2.33459
2.33039
2.32475
2.31815
2.30879
2.29806
2.29096
2.28646
2.28224
2.27783
2.27278
2.26708
2.26064
2.25336
2.24615
2.2413
2.23839
2.23591
2.23341
2.23062
2.22727
2.22288
2.21692
2.2096
2.20268
2.19704
2.19162
2.18552
2.17835
2.17042
2.16281
2.15669
2.15197
2.14807
2.14489
2.14172
2.13797
2.13382
2.12868
2.12169
2.11364
2.10585
2.09834
2.0906
2.0823
2.07367
2.06609
2.06105
2.05754
2.05506
2.0538
2.0521
2.04978
2.04731
2.04301
2.0343
2.02326
2.01594
2.01282
2.01124
2.00994
2.00885
2.00688
2.00409
2.00001
1.99284
1.98387
1.97802
1.9748
1.97247
1.97172
1.9717
1.97243
1.9725
1.97108
1.9679
1.9619
1.95169
1.94172
1.93544
1.93048
1.92553
1.92099
1.91824
1.91657
1.91528
1.9145
1.91335
1.9108
1.90178
2.10078
1.99031
1.87905
1.75303
1.67667
1.6194
1.53901
1.47026
1.44224
1.40674
1.36762
1.33473
1.29148
1.26123
1.25682
1.25145
1.23591
1.21152
1.19154
1.18497
1.17934
1.1681
1.1659
1.17136
1.17955
1.1851
1.19497
1.2202
1.2574
1.30013
1.3425
1.37307
1.39824
1.41179
1.42586
1.44679
1.45725
1.46281
1.46817
1.47074
1.4738
1.48004
1.49124
1.49994
1.50284
1.50408
1.50348
1.50252
1.50295
1.50325
1.50433
1.50591
1.50782
1.50994
1.51227
1.51528
1.51698
1.51718
1.51724
1.51603
1.51407
1.5132
1.51314
1.51391
1.51628
1.51922
1.52047
1.52035
1.52142
1.52839
1.5805
1.75747
1.95389
1.99711
2.00612
2.00776
2.00434
1.99896
1.99321
1.99593
2.0579
2.23705
2.38345
2.43392
2.44162
2.43568
2.42455
2.41361
2.40555
2.39806
2.38862
2.37913
2.37242
2.36699
2.36168
2.35544
2.34913
2.34291
2.33592
2.32864
2.32242
2.31689
2.31239
2.30819
2.30244
2.29567
2.28698
2.2772
2.26923
2.26388
2.25931
2.25453
2.24924
2.24319
2.23592
2.22707
2.21859
2.21382
2.21078
2.20784
2.20506
2.20231
2.19922
2.19571
2.1912
2.1848
2.17661
2.16874
2.1622
2.15619
2.15056
2.14556
2.14086
2.13587
2.13074
2.12633
2.1226
2.11922
2.11563
2.11109
2.10492
2.0973
2.08927
2.08152
2.07414
2.06691
2.05965
2.0525
2.04589
2.04022
2.03596
2.03285
2.03075
2.0294
2.02762
2.02532
2.0212
2.01379
2.00438
1.99607
1.99149
1.98986
1.98888
1.98806
1.9869
1.98477
1.98181
1.97551
1.96455
1.95418
1.94954
1.94847
1.94815
1.94846
1.95012
1.95057
1.94947
1.94672
1.94099
1.92929
1.91524
1.90576
1.90025
1.89644
1.89451
1.89353
1.89308
1.89311
1.89393
1.8932
1.89096
1.88338
2.13803
2.04317
1.94982
1.84542
1.75993
1.69927
1.62818
1.57311
1.53098
1.47052
1.43047
1.41351
1.38959
1.35082
1.30923
1.2954
1.28544
1.27449
1.25599
1.23588
1.23313
1.22617
1.20744
1.1904
1.19146
1.1959
1.19774
1.19734
1.19996
1.20922
1.2293
1.2578
1.29165
1.33219
1.36634
1.40405
1.43186
1.44755
1.45621
1.45692
1.45938
1.46544
1.47636
1.48578
1.48837
1.49013
1.49162
1.49303
1.49393
1.49466
1.49685
1.49787
1.49826
1.49938
1.5014
1.50442
1.5064
1.50696
1.50726
1.50623
1.50451
1.50465
1.50581
1.50855
1.51067
1.51043
1.50964
1.51022
1.51688
1.58653
1.75478
1.94487
2.00056
2.00463
2.00511
2.00603
2.00196
1.99248
1.98856
1.98505
1.98594
2.02968
2.18346
2.34831
2.41827
2.42302
2.41694
2.40644
2.39886
2.39243
2.38662
2.37942
2.36987
2.36003
2.35197
2.34585
2.34198
2.33865
2.33323
2.32594
2.31667
2.30847
2.30202
2.2959
2.28949
2.28244
2.27503
2.26728
2.25946
2.25277
2.24741
2.24217
2.23664
2.23068
2.22389
2.21537
2.20572
2.19886
2.19462
2.19083
2.18729
2.18409
2.18093
2.17738
2.17311
2.16756
2.15976
2.1505
2.14334
2.13851
2.13464
2.13139
2.1283
2.12474
2.12017
2.11429
2.10811
2.1029
2.09766
2.09148
2.08433
2.07718
2.0699
2.06254
2.05569
2.04982
2.04466
2.0398
2.03493
2.02961
2.02382
2.01885
2.01558
2.01337
2.01028
2.00628
2.00117
1.99552
1.99066
1.98592
1.98034
1.97521
1.97268
1.97132
1.97018
1.96845
1.96437
1.95711
1.94785
1.93908
1.93309
1.93053
1.92953
1.92926
1.93015
1.93057
1.92897
1.92452
1.91618
1.90438
1.89215
1.88232
1.87661
1.87459
1.87365
1.87309
1.87301
1.87341
1.87408
1.87277
1.87066
1.86435
2.16767
2.08801
2.00386
1.91378
1.84221
1.77529
1.70064
1.64882
1.60796
1.55875
1.50477
1.47292
1.44893
1.42132
1.38699
1.34802
1.3311
1.32928
1.32065
1.30017
1.28336
1.27506
1.26242
1.24295
1.2252
1.21983
1.2162
1.21352
1.21106
1.20817
1.20853
1.21133
1.21635
1.22827
1.25318
1.28797
1.33704
1.37618
1.4106
1.4368
1.45111
1.4576
1.46739
1.4773
1.47963
1.48011
1.48197
1.48486
1.4865
1.48891
1.49323
1.49487
1.49497
1.49524
1.49659
1.4983
1.49857
1.49866
1.49872
1.49879
1.4994
1.50041
1.50348
1.50819
1.50896
1.50767
1.50542
1.51064
1.58044
1.79568
1.93343
2.00031
2.00733
2.00551
2.0065
2.00487
1.99961
1.98986
1.98286
1.9794
1.97727
1.9778
2.00465
2.12891
2.3141
2.40077
2.42038
2.40952
2.40178
2.39349
2.38824
2.38301
2.37522
2.36352
2.35301
2.34602
2.34008
2.33686
2.33158
2.32471
2.316
2.30507
2.29533
2.28767
2.28097
2.27515
2.26925
2.26293
2.25591
2.24858
2.24227
2.23675
2.23136
2.22591
2.22015
2.21311
2.20382
2.19447
2.18783
2.18289
2.17843
2.17408
2.17018
2.16635
2.16221
2.1575
2.15146
2.14371
2.13713
2.13295
2.12971
2.12694
2.12372
2.11963
2.11424
2.10681
2.09767
2.08874
2.08147
2.07599
2.07092
2.06485
2.05796
2.05061
2.0445
2.04024
2.03684
2.03361
2.0303
2.02645
2.02145
2.01486
2.00649
1.99806
1.99231
1.98811
1.98512
1.98332
1.98185
1.98
1.97681
1.97152
1.96511
1.96015
1.95622
1.95146
1.94592
1.93993
1.93481
1.93048
1.92583
1.92086
1.91767
1.91613
1.91523
1.91259
1.90773
1.9007
1.89217
1.88346
1.87594
1.86931
1.86324
1.85975
1.85876
1.85819
1.85805
1.85834
1.85807
1.85655
1.85453
1.84811
2.18819
2.11937
2.04672
1.97128
1.90372
1.83617
1.76718
1.72043
1.67744
1.62443
1.57552
1.53805
1.50164
1.47549
1.4543
1.42093
1.38222
1.37116
1.36729
1.35724
1.33968
1.32008
1.30285
1.28969
1.27888
1.26615
1.25094
1.24621
1.24307
1.23294
1.22571
1.22577
1.22591
1.22482
1.2215
1.22378
1.23713
1.26159
1.2964
1.34268
1.38666
1.42356
1.44671
1.46764
1.47755
1.4771
1.47484
1.4756
1.47591
1.4793
1.48735
1.49341
1.49665
1.49779
1.49782
1.49707
1.4961
1.49504
1.49382
1.49363
1.49384
1.49553
1.50058
1.50615
1.50712
1.50666
1.51247
1.57862
1.80209
1.95839
1.9993
2.00854
2.00652
2.00403
2.00268
2.00084
1.99601
1.98785
1.98046
1.97562
1.97288
1.97128
1.97188
1.9869
2.08737
2.2561
2.37839
2.39865
2.39939
2.39315
2.38937
2.38439
2.37839
2.36929
2.35692
2.34756
2.34012
2.33389
2.3288
2.32201
2.31414
2.30373
2.29242
2.2839
2.27699
2.27121
2.26647
2.26056
2.25431
2.2474
2.24029
2.23429
2.22907
2.22411
2.21898
2.21304
2.20582
2.19681
2.18648
2.17759
2.17047
2.165
2.1604
2.15698
2.15434
2.15096
2.14692
2.14218
2.13672
2.13136
2.12688
2.12265
2.11827
2.11346
2.10781
2.10056
2.09127
2.08124
2.07327
2.06713
2.06107
2.0546
2.04796
2.04271
2.03901
2.03587
2.03318
2.03176
2.03043
2.02717
2.02227
2.01376
2.00128
1.98979
1.98279
1.97928
1.9775
1.97681
1.9772
1.97696
1.97502
1.97083
1.96247
1.95116
1.94269
1.93769
1.93363
1.93025
1.92767
1.92582
1.92315
1.91958
1.91402
1.90629
1.89838
1.89238
1.88609
1.87937
1.87351
1.86948
1.86654
1.86342
1.85919
1.85384
1.85069
1.84995
1.84985
1.84913
1.84733
1.84436
1.84002
1.83175
2.20386
2.14264
2.07789
2.01494
1.95309
1.8881
1.82735
1.77769
1.73397
1.68634
1.64135
1.60095
1.55444
1.52048
1.50502
1.48414
1.45494
1.42712
1.4082
1.39814
1.38896
1.37355
1.34859
1.32535
1.31832
1.31068
1.2973
1.28454
1.27826
1.27013
1.2543
1.2469
1.24467
1.23943
1.23425
1.231
1.22809
1.22782
1.23147
1.24387
1.26874
1.30752
1.34997
1.38766
1.42604
1.45
1.46069
1.46331
1.46563
1.47525
1.48496
1.49037
1.49379
1.49622
1.49764
1.49803
1.49682
1.49284
1.49087
1.49019
1.49028
1.49197
1.49616
1.50122
1.50512
1.51547
1.58646
1.7851
1.98114
2.00497
2.00694
2.00334
1.99967
1.99966
1.99802
1.99678
1.99481
1.98801
1.97955
1.97428
1.97027
1.9689
1.96809
1.96754
1.97538
2.03592
2.18908
2.33406
2.37655
2.38478
2.38516
2.38131
2.37538
2.36917
2.35967
2.3479
2.33854
2.33092
2.32471
2.31795
2.31057
2.30182
2.2913
2.28153
2.27392
2.26747
2.26159
2.25678
2.25143
2.24547
2.2388
2.23177
2.22625
2.22177
2.21709
2.21203
2.20633
2.19917
2.18963
2.17804
2.16832
2.16191
2.15711
2.15327
2.15008
2.14738
2.14438
2.1406
2.1348
2.12768
2.12154
2.11651
2.1119
2.10719
2.10211
2.0963
2.08887
2.07933
2.06969
2.06207
2.05617
2.05051
2.04497
2.04066
2.03728
2.03471
2.03379
2.0335
2.03104
2.0269
2.02095
2.0116
1.99913
1.98756
1.98038
1.97693
1.97522
1.97522
1.97803
1.97714
1.97443
1.96994
1.96086
1.94783
1.93757
1.93183
1.9289
1.92793
1.92962
1.92821
1.92437
1.91941
1.91115
1.89881
1.88598
1.87642
1.87029
1.86613
1.86326
1.86196
1.86179
1.85976
1.85753
1.85455
1.84954
1.84388
1.83922
1.83636
1.83418
1.83146
1.82792
1.82085
2.21354
2.15789
2.10127
2.04738
1.98929
1.9274
1.87832
1.83073
1.78195
1.73331
1.69295
1.65467
1.61674
1.57746
1.54952
1.52625
1.50611
1.4891
1.46817
1.43533
1.42107
1.41133
1.3933
1.36472
1.35058
1.34521
1.33836
1.32952
1.31933
1.30769
1.29468
1.28632