/*--------------------------------*- C++ -*----------------------------------*\
  =========                 |
  \\      /  F ield         | OpenFOAM: The Open Source CFD Toolbox
   \\    /   O peration     | Website:  https://openfoam.org
    \\  /    A nd           | Version:  7
     \\/     M anipulation  |
\*---------------------------------------------------------------------------*/
FoamFile
{
    version     2.0;
    format      ascii;
    class       volVectorField;
    location    "2.4";
    object      U;
}
// * * * * * * * * * * * * * * * * * * * * * * * * * * * * * * * * * * * * * //

dimensions      [0 1 -1 0 0 0 0];

internalField   nonuniform List<vector> 
16128
(
(3 -2.48732e-17 0)
(3 6.77386e-17 0)
(3 -1.14189e-16 0)
(3 -1.97558e-16 0)
(3 -5.03843e-16 0)
(3 2.83125e-16 0)
(3 1.05059e-15 0)
(3 1.97557e-15 0)
(3 1.71406e-15 0)
(3 5.30062e-16 0)
(3 -2.99675e-16 0)
(3 -2.89105e-16 0)
(3 -3.17039e-16 0)
(3 -1.63354e-16 0)
(3 -5.77522e-16 0)
(3 -8.92255e-16 0)
(3 -9.32411e-16 0)
(3 1.78725e-17 0)
(3 7.49037e-16 0)
(3 1.21607e-15 0)
(3 1.01596e-15 0)
(3 6.65548e-16 0)
(3 7.52522e-16 0)
(3 6.98982e-16 0)
(2.20264 0.0064916 0)
(0.83651 0.00788209 0)
(0.72702 0.0131919 0)
(0.69733 0.0140882 0)
(0.663926 0.0142267 0)
(0.632228 0.0140434 0)
(0.600907 0.0137354 0)
(0.570198 0.0135868 0)
(0.539622 0.01372 0)
(0.508893 0.0139443 0)
(0.47809 0.0141843 0)
(0.447117 0.0145749 0)
(0.41568 0.0149375 0)
(0.383985 0.0150525 0)
(0.352283 0.0151962 0)
(0.320119 0.0157191 0)
(0.286868 0.0164743 0)
(0.25232 0.017189 0)
(0.216875 0.0175722 0)
(0.180765 0.0180013 0)
(0.143192 0.0185392 0)
(0.104475 0.0196542 0)
(0.0635993 0.0203318 0)
(0.0222692 0.0212991 0)
(3 5.13181e-17 0)
(3 3.28197e-16 0)
(3 -5.5348e-18 0)
(3 -1.1113e-15 0)
(3 -7.61143e-16 0)
(3 3.0456e-16 0)
(3 1.38577e-15 0)
(3 2.34918e-15 0)
(3 2.68432e-15 0)
(3 1.37798e-15 0)
(3 4.98949e-16 0)
(3 2.99061e-16 0)
(3 1.62776e-16 0)
(3 4.39101e-16 0)
(3 3.31447e-16 0)
(3 1.87085e-16 0)
(3 -5.96339e-16 0)
(3 -2.74592e-16 0)
(3 1.20473e-15 0)
(3 1.77001e-15 0)
(3 1.16198e-15 0)
(3 2.87688e-16 0)
(3 3.56098e-16 0)
(3 6.98128e-16 0)
(2.22193 0.0329898 0)
(0.832587 0.037361 0)
(0.717342 0.0385009 0)
(0.688015 0.0394824 0)
(0.655367 0.0400552 0)
(0.624275 0.0400619 0)
(0.593235 0.0396877 0)
(0.562496 0.0394789 0)
(0.531785 0.0398827 0)
(0.500952 0.040531 0)
(0.470067 0.041282 0)
(0.439019 0.0425057 0)
(0.407548 0.0436292 0)
(0.375906 0.0440341 0)
(0.34435 0.0446213 0)
(0.312447 0.0464111 0)
(0.279621 0.0488813 0)
(0.245712 0.0512061 0)
(0.211122 0.0525308 0)
(0.176047 0.0540399 0)
(0.139583 0.0557944 0)
(0.102127 0.059229 0)
(0.0623516 0.0614276 0)
(0.0219974 0.0645856 0)
(3 1.33955e-16 0)
(3 1.75014e-16 0)
(3 2.2741e-17 0)
(3 -6.32491e-16 0)
(3 -5.92534e-16 0)
(3 1.7903e-16 0)
(3 5.77275e-16 0)
(3 8.93573e-16 0)
(3 9.37066e-16 0)
(3 1.97904e-15 0)
(3 2.27825e-15 0)
(3 1.65019e-15 0)
(3 8.41279e-16 0)
(3 5.03012e-16 0)
(3 1.0013e-15 0)
(3 6.84512e-16 0)
(3 -1.88413e-16 0)
(3 -3.94252e-16 0)
(3 6.44024e-18 0)
(3 3.20519e-16 0)
(3 -8.92884e-18 0)
(3 -9.30684e-16 0)
(3 -7.28381e-16 0)
(3 -5.10038e-16 0)
(2.29457 0.0590978 0)
(0.847592 0.0675794 0)
(0.722346 0.0658105 0)
(0.691709 0.0672254 0)
(0.657831 0.067924 0)
(0.626043 0.0679953 0)
(0.594374 0.0676214 0)
(0.562899 0.0675157 0)
(0.531412 0.0681873 0)
(0.499858 0.0691098 0)
(0.468285 0.0701744 0)
(0.436559 0.0720116 0)
(0.404394 0.0736858 0)
(0.372023 0.0742044 0)
(0.339674 0.0750267 0)
(0.306971 0.0777594 0)
(0.273438 0.0814655 0)
(0.239046 0.0848252 0)
(0.204341 0.0865504 0)
(0.169645 0.0887789 0)
(0.133929 0.0914574 0)
(0.0979537 0.0970766 0)
(0.0597534 0.100852 0)
(0.0212651 0.106373 0)
(3 -9.31204e-17 0)
(3 -3.61605e-16 0)
(3 -1.4485e-16 0)
(3 2.78729e-16 0)
(3 5.1426e-16 0)
(3 1.12969e-15 0)
(3 9.76767e-16 0)
(3 4.80173e-16 0)
(3 4.53125e-16 0)
(3 9.16521e-16 0)
(3 7.11826e-16 0)
(3 6.40938e-16 0)
(3 3.52333e-16 0)
(3 4.05103e-16 0)
(3 6.37372e-16 0)
(3 5.64497e-16 0)
(3 3.35074e-16 0)
(3 1.0102e-16 0)
(3 2.09221e-16 0)
(3 -2.89562e-16 0)
(3 -8.04141e-16 0)
(3 -1.52647e-15 0)
(3 -1.98908e-15 0)
(3 -1.12208e-15 0)
(2.39079 0.0766348 0)
(0.866011 0.0959724 0)
(0.728666 0.0917557 0)
(0.699477 0.0936713 0)
(0.66638 0.0944206 0)
(0.635248 0.0947047 0)
(0.603755 0.0947704 0)
(0.572044 0.0952035 0)
(0.540051 0.0964103 0)
(0.507863 0.0977756 0)
(0.47556 0.0993097 0)
(0.443044 0.101925 0)
(0.410004 0.104383 0)
(0.376587 0.105351 0)
(0.342971 0.106767 0)
(0.308853 0.110696 0)
(0.273815 0.115675 0)
(0.237956 0.11984 0)
(0.202044 0.121513 0)
(0.166616 0.123945 0)
(0.130541 0.126869 0)
(0.095135 0.134036 0)
(0.0577733 0.139065 0)
(0.0207241 0.146802 0)
(3 -1.99418e-17 0)
(3 -8.3446e-18 0)
(3 2.65751e-16 0)
(3 5.69154e-16 0)
(3 6.45277e-16 0)
(3 6.63543e-16 0)
(3 9.03106e-16 0)
(3 8.71476e-16 0)
(3 2.47504e-16 0)
(3 -4.91684e-16 0)
(3 -4.51077e-16 0)
(3 -4.72734e-17 0)
(3 6.55699e-16 0)
(3 7.93481e-16 0)
(3 3.94918e-16 0)
(3 4.78699e-16 0)
(3 9.19488e-16 0)
(3 1.28328e-15 0)
(3 4.63014e-16 0)
(3 -1.60932e-17 0)
(3 5.55247e-17 0)
(3 -5.30176e-16 0)
(3 -1.02453e-15 0)
(3 -1.89367e-15 0)
(2.50586 0.0887072 0)
(0.888435 0.125046 0)
(0.73153 0.116465 0)
(0.70393 0.119069 0)
(0.67199 0.12043 0)
(0.64185 0.121407 0)
(0.61086 0.122375 0)
(0.579256 0.12373 0)
(0.547054 0.125668 0)
(0.51447 0.127543 0)
(0.481684 0.129517 0)
(0.448728 0.132814 0)
(0.415281 0.136045 0)
(0.381334 0.137582 0)
(0.346987 0.139719 0)
(0.312037 0.14491 0)
(0.276085 0.151133 0)
(0.239285 0.155959 0)
(0.202556 0.157353 0)
(0.166541 0.159786 0)
(0.129934 0.162583 0)
(0.0945311 0.170844 0)
(0.0571962 0.176812 0)
(0.02076 0.186569 0)
(3 -1.09147e-16 0)
(3 1.2162e-16 0)
(3 2.2508e-16 0)
(3 3.5294e-16 0)
(3 3.36355e-16 0)
(3 2.97775e-16 0)
(3 4.44482e-16 0)
(3 -1.84225e-16 0)
(3 -5.52518e-16 0)
(3 -7.30682e-16 0)
(3 -7.27275e-16 0)
(3 -5.06495e-16 0)
(3 1.85989e-16 0)
(3 4.51395e-16 0)
(3 7.87874e-16 0)
(3 1.41864e-15 0)
(3 1.66787e-15 0)
(3 1.48345e-15 0)
(3 1.31115e-16 0)
(3 8.48541e-17 0)
(3 4.22659e-16 0)
(3 -1.79486e-16 0)
(3 3.33621e-17 0)
(3 -1.08994e-15 0)
(2.6373 0.0981 0)
(0.920249 0.156754 0)
(0.735838 0.140211 0)
(0.709096 0.14361 0)
(0.677644 0.145929 0)
(0.647704 0.147993 0)
(0.616723 0.150125 0)
(0.585324 0.152595 0)
(0.553545 0.155372 0)
(0.521471 0.15781 0)
(0.489079 0.160223 0)
(0.45635 0.16417 0)
(0.422906 0.16828 0)
(0.388589 0.170653 0)
(0.353539 0.173712 0)
(0.317803 0.180216 0)
(0.28105 0.187616 0)
(0.243454 0.192964 0)
(0.205974 0.193971 0)
(0.16923 0.196408 0)
(0.13169 0.198982 0)
(0.0956291 0.208186 0)
(0.0575769 0.214949 0)
(0.0211352 0.226668 0)
(3 -1.25989e-16 0)
(3 -1.34717e-16 0)
(3 -3.68124e-16 0)
(3 -1.42273e-16 0)
(3 1.54449e-16 0)
(3 9.79552e-17 0)
(3 -5.63987e-16 0)
(3 -5.51026e-16 0)
(3 -2.56988e-16 0)
(3 -3.65882e-16 0)
(3 -9.28535e-16 0)
(3 -1.38985e-15 0)
(3 -9.82298e-16 0)
(3 4.34231e-19 0)
(3 7.19736e-16 0)
(3 1.35872e-15 0)
(3 1.01131e-15 0)
(3 7.40308e-16 0)
(3 8.25054e-16 0)
(3 1.15923e-15 0)
(3 7.07855e-16 0)
(3 -3.55673e-16 0)
(3 -5.7892e-16 0)
(3 -1.02422e-15 0)
(2.78096 0.100605 0)
(0.967523 0.187186 0)
(0.748081 0.162806 0)
(0.72242 0.16735 0)
(0.690714 0.171547 0)
(0.660327 0.175028 0)
(0.629137 0.17802 0)
(0.598103 0.181131 0)
(0.566943 0.184491 0)
(0.535281 0.187606 0)
(0.502793 0.190821 0)
(0.469517 0.195822 0)
(0.435227 0.201289 0)
(0.399773 0.204983 0)
(0.363485 0.209175 0)
(0.32675 0.216926 0)
(0.289292 0.225337 0)
(0.251153 0.231118 0)
(0.213047 0.231848 0)
(0.175365 0.234574 0)
(0.136271 0.237063 0)
(0.0986718 0.247085 0)
(0.0589362 0.254319 0)
(0.0216778 0.267645 0)
(3 3.96976e-16 0)
(3 3.53639e-16 0)
(3 2.09231e-16 0)
(3 -1.10323e-16 0)
(3 -3.03072e-16 0)
(3 -5.18297e-16 0)
(3 -8.95175e-16 0)
(3 -6.53108e-16 0)
(3 -9.93548e-16 0)
(3 -1.54422e-15 0)
(3 -1.02309e-15 0)
(3 -9.63156e-16 0)
(3 -8.52973e-16 0)
(3 -1.64752e-16 0)
(3 -4.40421e-17 0)
(3 2.28699e-17 0)
(3 -1.43425e-16 0)
(3 -2.17917e-16 0)
(3 -4.27158e-17 0)
(3 -2.81951e-16 0)
(3 -8.26004e-16 0)
(3 -1.28604e-15 0)
(3 -1.74713e-15 0)
(3 -1.73605e-15 0)
(2.91892 0.0734194 0)
(1.02668 0.211374 0)
(0.766509 0.178212 0)
(0.743352 0.188702 0)
(0.711665 0.196136 0)
(0.681058 0.201113 0)
(0.649795 0.204644 0)
(0.618981 0.208174 0)
(0.588127 0.212398 0)
(0.556433 0.216896 0)
(0.523307 0.221702 0)
(0.488976 0.228275 0)
(0.453569 0.235364 0)
(0.41706 0.240469 0)
(0.379922 0.245572 0)
(0.342752 0.254128 0)
(0.305199 0.263162 0)
(0.26696 0.269346 0)
(0.228224 0.270242 0)
(0.189158 0.274054 0)
(0.14769 0.277232 0)
(0.107073 0.288524 0)
(0.0638139 0.296354 0)
(0.0233556 0.31101 0)
(3 1.30714e-17 0)
(3 8.65427e-17 0)
(3 3.90902e-17 0)
(3 1.94752e-17 0)
(3 -5.2669e-17 0)
(3 5.56571e-17 0)
(3 -5.8814e-16 0)
(3 -1.23331e-15 0)
(3 -1.32158e-15 0)
(3 -1.30499e-15 0)
(3 -1.0283e-15 0)
(3 6.30171e-16 0)
(3 1.23125e-15 0)
(3 1.0189e-15 0)
(3 2.1313e-16 0)
(3 -4.85747e-16 0)
(3 -7.76207e-16 0)
(3 -2.05491e-15 0)
(3 -2.03993e-15 0)
(3 -1.53359e-15 0)
(3 -1.86482e-15 0)
(3 -1.47043e-15 0)
(3 -1.09779e-15 0)
(3 -1.49935e-15 0)
(2.99677 0.0158922 0)
(1.09103 0.228999 0)
(0.777226 0.194464 0)
(0.75816 0.211288 0)
(0.730047 0.22105 0)
(0.701331 0.226679 0)
(0.671526 0.230177 0)
(0.641758 0.233688 0)
(0.611761 0.238873 0)
(0.580562 0.245426 0)
(0.547399 0.252574 0)
(0.512582 0.261094 0)
(0.476492 0.269916 0)
(0.439225 0.276502 0)
(0.401349 0.282423 0)
(0.363656 0.29159 0)
(0.32576 0.301241 0)
(0.287052 0.308314 0)
(0.247067 0.310259 0)
(0.20601 0.316198 0)
(0.161373 0.321102 0)
(0.117028 0.334246 0)
(0.0695505 0.34291 0)
(0.0251816 0.358659 0)
(3 -2.2421e-16 0)
(3 -4.12348e-16 0)
(3 -3.55418e-16 0)
(3 -5.89071e-16 0)
(3 -7.8816e-16 0)
(3 -1.28621e-15 0)
(3 -1.76831e-15 0)
(3 -1.86057e-15 0)
(3 -1.13131e-15 0)
(3 -7.0798e-16 0)
(3 -5.51813e-16 0)
(3 1.37579e-15 0)
(3 2.18394e-15 0)
(3 1.57056e-15 0)
(3 1.14628e-15 0)
(3 -1.60752e-16 0)
(3 -1.11116e-15 0)
(3 -1.12463e-15 0)
(3 -9.75857e-16 0)
(3 -3.9713e-16 0)
(3 -5.96508e-16 0)
(3 -6.45456e-16 0)
(3 1.68955e-17 0)
(3 -4.1719e-16 0)
(3.00225 0.00106024 0)
(1.18512 0.243676 0)
(0.774222 0.210244 0)
(0.751602 0.233188 0)
(0.727556 0.246544 0)
(0.702039 0.253694 0)
(0.675554 0.257804 0)
(0.648891 0.261193 0)
(0.622393 0.266665 0)
(0.594809 0.27458 0)
(0.564609 0.284005 0)
(0.531985 0.294793 0)
(0.497653 0.305486 0)
(0.461711 0.313565 0)
(0.424546 0.320237 0)
(0.387064 0.329907 0)
(0.348984 0.340288 0)
(0.309617 0.3489 0)
(0.267869 0.352887 0)
(0.224503 0.361964 0)
(0.176399 0.369619 0)
(0.128251 0.384914 0)
(0.0764448 0.394606 0)
(0.0271367 0.410945 0)
(3 -9.38124e-17 0)
(3 -2.01271e-16 0)
(3 -3.13238e-16 0)
(3 -1.11444e-15 0)
(3 -2.22957e-15 0)
(3 -2.11519e-15 0)
(3 -1.80389e-15 0)
(3 -2.01936e-15 0)
(3 -1.84992e-15 0)
(3 -1.1825e-15 0)
(3 -4.18065e-16 0)
(3 3.47298e-16 0)
(3 -1.91054e-16 0)
(3 -8.2333e-16 0)
(3 -6.31294e-16 0)
(3 -9.98354e-17 0)
(3 -6.04908e-17 0)
(3 3.81229e-16 0)
(3 1.22276e-16 0)
(3 7.71243e-17 0)
(3 5.5024e-16 0)
(3 9.64014e-16 0)
(3 3.29905e-16 0)
(3 -1.01586e-15 0)
(3.00003 1.43655e-06 0)
(1.34778 0.277328 0)
(0.779271 0.239147 0)
(0.734871 0.248791 0)
(0.71289 0.263076 0)
(0.689254 0.272925 0)
(0.665636 0.279239 0)
(0.641945 0.283596 0)
(0.619116 0.290112 0)
(0.597069 0.299992 0)
(0.573866 0.311695 0)
(0.547884 0.324461 0)
(0.518625 0.337196 0)
(0.486013 0.347726 0)
(0.450498 0.356449 0)
(0.41345 0.367778 0)
(0.374953 0.379931 0)
(0.334784 0.391149 0)
(0.291488 0.397968 0)
(0.246612 0.41049 0)
(0.196178 0.421804 0)
(0.144217 0.44038 0)
(0.086697 0.452544 0)
(0.0308291 0.470085 0)
(3 -5.27032e-17 0)
(3 3.71794e-17 0)
(3 -5.06951e-16 0)
(3 -8.56304e-16 0)
(3 -8.56404e-16 0)
(3 -4.66712e-16 0)
(3 -4.25764e-16 0)
(3 -9.46163e-16 0)
(3 -1.12883e-15 0)
(3 -4.41375e-16 0)
(3 -3.34314e-16 0)
(3 -3.9047e-16 0)
(3 -1.97209e-15 0)
(3 -2.61228e-15 0)
(3 -2.31373e-15 0)
(3 -1.73699e-15 0)
(3 -5.36652e-16 0)
(3 -1.28972e-16 0)
(3 -1.93456e-16 0)
(3 8.49297e-16 0)
(3 2.16486e-15 0)
(3 2.59398e-15 0)
(3 1.00471e-15 0)
(3 -1.29492e-15 0)
(3 -1.72086e-09 0)
(1.59329 0.30762 0)
(0.801402 0.280697 0)
(0.727887 0.275246 0)
(0.698893 0.282943 0)
(0.674619 0.291002 0)
(0.651719 0.297124 0)
(0.629183 0.301262 0)
(0.607713 0.306868 0)
(0.588315 0.317555 0)
(0.569639 0.3324 0)
(0.550119 0.349375 0)
(0.52789 0.366011 0)
(0.50146 0.380332 0)
(0.47051 0.392265 0)
(0.436586 0.406104 0)
(0.399794 0.420643 0)
(0.360358 0.435064 0)
(0.316037 0.445763 0)
(0.26876 0.463005 0)
(0.214678 0.480388 0)
(0.157972 0.503685 0)
(0.0953967 0.519578 0)
(0.0325201 0.537673 0)
(3 -1.03427e-17 0)
(3 -8.04617e-17 0)
(3 -5.2696e-16 0)
(3 -2.94627e-16 0)
(3 2.51437e-18 0)
(3 -5.76979e-16 0)
(3 -4.82271e-16 0)
(3 -1.58124e-16 0)
(3 -4.18949e-17 0)
(3 -4.91801e-16 0)
(3 -1.12058e-15 0)
(3 -1.52687e-15 0)
(3 -2.18225e-15 0)
(3 -2.31826e-15 0)
(3 -1.8966e-15 0)
(3 -1.25105e-15 0)
(3 3.10057e-16 0)
(3 1.26813e-15 0)
(3 2.12091e-15 0)
(3 2.49167e-15 0)
(3 2.26407e-15 0)
(3 2.35748e-15 0)
(3 1.04597e-15 0)
(3 1.75136e-15 0)
(3 -8.68723e-10 0)
(1.91391 0.335803 0)
(0.831229 0.337303 0)
(0.731749 0.312533 0)
(0.701875 0.312034 0)
(0.675453 0.315915 0)
(0.651161 0.321329 0)
(0.627103 0.324671 0)
(0.603993 0.327846 0)
(0.583334 0.336049 0)
(0.565113 0.350014 0)
(0.547828 0.368199 0)
(0.530071 0.388204 0)
(0.509591 0.407231 0)
(0.484295 0.42382 0)
(0.455357 0.44167 0)
(0.422028 0.460356 0)
(0.38481 0.479722 0)
(0.341098 0.496513 0)
(0.293567 0.519423 0)
(0.240862 0.542697 0)
(0.182923 0.571514 0)
(0.113795 0.594594 0)
(0.0408381 0.616618 0)
(3 1.36614e-16 0)
(3 8.63201e-18 0)
(3 6.84646e-16 0)
(3 9.94612e-16 0)
(3 1.03893e-15 0)
(3 8.32231e-16 0)
(3 6.90358e-16 0)
(3 6.64826e-16 0)
(3 5.6728e-17 0)
(3 -9.31139e-16 0)
(3 -1.489e-15 0)
(3 -2.46488e-15 0)
(3 -2.61827e-15 0)
(3 -2.22242e-15 0)
(3 -1.60752e-15 0)
(3 -1.533e-15 0)
(3 -3.71419e-16 0)
(3 3.35683e-16 0)
(3 1.95455e-15 0)
(3 2.21437e-15 0)
(3 2.50923e-15 0)
(3 2.6141e-15 0)
(3 1.7433e-15 0)
(3 1.9203e-15 0)
(3 -1.42258e-10 0)
(2.33927 0.341798 0)
(0.8999 0.396802 0)
(0.773417 0.339241 0)
(0.74227 0.338695 0)
(0.708693 0.342283 0)
(0.677443 0.346858 0)
(0.647118 0.350327 0)
(0.618279 0.352364 0)
(0.59246 0.358427 0)
(0.570696 0.370805 0)
(0.551922 0.388256 0)
(0.53431 0.408666 0)
(0.516512 0.430235 0)
(0.495538 0.451055 0)
(0.47118 0.473681 0)
(0.442466 0.497831 0)
(0.409487 0.523227 0)
(0.369091 0.547095 0)
(0.323507 0.576857 0)
(0.268582 0.610226 0)
(0.204015 0.651256 0)
(0.128072 0.689941 0)
(0.0408103 0.716961 0)
(3 1.16684e-16 0)
(3 1.2031e-16 0)
(3 4.23775e-16 0)
(3 9.93634e-16 0)
(3 1.38234e-15 0)
(3 1.76482e-15 0)
(3 1.18224e-15 0)
(3 3.93456e-16 0)
(3 -3.29133e-16 0)
(3 -6.30019e-17 0)
(3 -1.62952e-16 0)
(3 -8.61339e-16 0)
(3 -7.49869e-16 0)
(3 -3.62281e-16 0)
(3 -2.98188e-16 0)
(3 -1.12932e-15 0)
(3 -9.76415e-16 0)
(3 -3.36117e-16 0)
(3 2.51345e-17 0)
(3 6.50942e-16 0)
(3 1.39437e-15 0)
(3 1.60996e-15 0)
(3 1.23478e-15 0)
(3 1.64031e-15 0)
(3 -1.04528e-11 0)
(2.86865 0.196565 0)
(1.04354 0.424039 0)
(0.839185 0.361041 0)
(0.81039 0.358485 0)
(0.768815 0.367599 0)
(0.728303 0.375754 0)
(0.689392 0.380673 0)
(0.652906 0.38158 0)
(0.619693 0.384414 0)
(0.591325 0.394062 0)
(0.567952 0.410234 0)
(0.547353 0.430175 0)
(0.528804 0.452724 0)
(0.508798 0.476417 0)
(0.48764 0.503059 0)
(0.46346 0.53252 0)
(0.434899 0.56472 0)
(0.399191 0.597686 0)
(0.35756 0.638038 0)
(0.308774 0.68525 0)
(0.251954 0.737419 0)
(0.180946 0.791414 0)
(0.0700751 0.839732 0)
(3 5.39904e-18 0)
(3 4.81494e-16 0)
(3 1.64692e-18 0)
(3 -3.4915e-16 0)
(3 -3.68907e-16 0)
(3 1.89847e-16 0)
(3 1.74411e-16 0)
(3 1.9042e-16 0)
(3 4.92081e-16 0)
(3 1.0779e-15 0)
(3 2.08922e-15 0)
(3 1.51761e-15 0)
(3 8.02214e-16 0)
(3 -3.40574e-16 0)
(3 -8.61859e-16 0)
(3 -1.34205e-15 0)
(3 -1.04339e-15 0)
(3 5.34002e-17 0)
(3 -6.41501e-17 0)
(3 -3.80658e-16 0)
(3 -3.86203e-16 0)
(3 1.2855e-16 0)
(3 1.07131e-15 0)
(3 2.62094e-15 0)
(3 -3.7821e-13 0)
(3.04834 0.0161542 0)
(1.21121 0.397059 0)
(0.859036 0.382301 0)
(0.838029 0.401974 0)
(0.805848 0.40848 0)
(0.772722 0.411713 0)
(0.736501 0.415221 0)
(0.698725 0.416384 0)
(0.661082 0.417324 0)
(0.626333 0.422918 0)
(0.596881 0.435938 0)
(0.571643 0.453844 0)
(0.549868 0.476072 0)
(0.52948 0.501008 0)
(0.509841 0.530112 0)
(0.488824 0.56407 0)
(0.465783 0.603041 0)
(0.437307 0.64501 0)
(0.40568 0.693916 0)
(0.367877 0.750965 0)
(0.314161 0.828862 0)
(0.219192 0.93931 0)
(0.120737 1.06473 0)
(3 -4.91432e-17 0)
(3 4.47408e-17 0)
(3 -5.4678e-18 0)
(3 -3.00557e-16 0)
(3 -5.61077e-16 0)
(3 -6.3455e-16 0)
(3 4.41707e-17 0)
(3 5.24219e-16 0)
(3 1.71898e-15 0)
(3 1.62262e-15 0)
(3 1.35764e-15 0)
(3 1.2029e-15 0)
(3 5.64951e-16 0)
(3 -5.61067e-16 0)
(3 -7.61018e-16 0)
(3 -2.48991e-16 0)
(3 5.3388e-17 0)
(3 3.26234e-16 0)
(3 -1.49075e-16 0)
(3 -7.20169e-16 0)
(3 -6.85997e-16 0)
(3 -6.09171e-16 0)
(3 3.60496e-16 0)
(3 2.18123e-15 0)
(3 -4.2425e-14 0)
(3.00228 2.31441e-05 0)
(1.38945 0.393747 0)
(0.839367 0.405132 0)
(0.821492 0.427409 0)
(0.798647 0.43522 0)
(0.778148 0.440886 0)
(0.756381 0.447961 0)
(0.729934 0.452239 0)
(0.698866 0.45469 0)
(0.66525 0.458441 0)
(0.633342 0.46845 0)
(0.604249 0.483414 0)
(0.579193 0.503638 0)
(0.556915 0.52786 0)
(0.537603 0.557769 0)
(0.519379 0.594349 0)
(0.502289 0.638042 0)
(0.482488 0.686568 0)
(0.461683 0.744205 0)
(0.434079 0.822028 0)
(0.406838 0.94602 0)
(0.394264 1.10271 0)
(0.50682 1.35997 0)
(3 -4.44193e-17 0)
(3 -9.0429e-16 0)
(3 -7.61123e-16 0)
(3 -1.65476e-16 0)
(3 -5.00544e-16 0)
(3 -3.39222e-16 0)
(3 3.29001e-17 0)
(3 7.65944e-16 0)
(3 9.78054e-16 0)
(3 1.51932e-15 0)
(3 1.44566e-15 0)
(3 1.42673e-15 0)
(3 9.34196e-16 0)
(3 1.10185e-15 0)
(3 1.16635e-15 0)
(3 1.38166e-15 0)
(3 1.19421e-15 0)
(3 6.5903e-16 0)
(3 -3.27553e-16 0)
(3 -7.29246e-16 0)
(3 -9.08285e-16 0)
(3 -6.18808e-16 0)
(3 -3.14757e-16 0)
(3 1.86785e-16 0)
(3 -5.02394e-15 0)
(3.00001 -3.75023e-07 0)
(1.72018 0.422817 0)
(0.848961 0.435405 0)
(0.795489 0.435002 0)
(0.788784 0.446119 0)
(0.776123 0.45567 0)
(0.764004 0.467334 0)
(0.747467 0.476716 0)
(0.726476 0.484303 0)
(0.700433 0.490868 0)
(0.672703 0.501093 0)
(0.644298 0.514604 0)
(0.618 0.532763 0)
(0.594125 0.555137 0)
(0.574397 0.584218 0)
(0.558169 0.621212 0)
(0.545961 0.667171 0)
(0.535246 0.721042 0)
(0.526419 0.787829 0)
(0.523913 0.88105 0)
(0.532813 1.01359 0)
(0.612452 1.16301 0)
(0.920463 1.36108 0)
(3 -1.4434e-17 0)
(3 -5.8085e-17 0)
(3 -1.11723e-16 0)
(3 -9.4434e-18 0)
(3 -1.90566e-16 0)
(3 -1.95962e-18 0)
(3 5.98649e-17 0)
(3 4.47128e-16 0)
(3 7.1964e-16 0)
(3 9.56873e-16 0)
(3 7.16083e-16 0)
(3 1.03396e-15 0)
(3 1.15979e-15 0)
(3 1.17323e-15 0)
(3 1.14147e-15 0)
(3 1.14206e-15 0)
(3 1.07378e-15 0)
(3 6.13086e-16 0)
(3 4.45825e-16 0)
(3 2.8818e-16 0)
(3 -5.90968e-16 0)
(3 -7.13365e-17 0)
(3 -1.23842e-16 0)
(3 6.47174e-17 0)
(3 1.02899e-16 0)
(3 -3.36793e-07 0)
(2.27275 0.424598 0)
(0.925052 0.503781 0)
(0.821148 0.449907 0)
(0.807558 0.456569 0)
(0.79178 0.469321 0)
(0.777575 0.48338 0)
(0.762443 0.495675 0)
(0.746743 0.507676 0)
(0.727229 0.519075 0)
(0.706517 0.532684 0)
(0.683103 0.5479 0)
(0.65951 0.565996 0)
(0.636489 0.586956 0)
(0.617148 0.614085 0)
(0.602893 0.649442 0)
(0.594793 0.694747 0)
(0.593329 0.750424 0)
(0.597793 0.820263 0)
(0.619881 0.914543 0)
(0.665264 1.03668 0)
(0.809689 1.1731 0)
(1.14124 1.29951 0)
(3 1.1181e-16 0)
(3 3.43003e-16 0)
(3 1.69232e-16 0)
(3 -1.01834e-16 0)
(3 -3.59136e-17 0)
(3 3.5906e-16 0)
(3 1.63006e-16 0)
(3 4.80397e-16 0)
(3 8.87145e-16 0)
(3 8.78677e-16 0)
(3 6.48297e-16 0)
(3 6.15291e-16 0)
(3 1.10802e-15 0)
(3 6.97573e-16 0)
(3 5.87579e-16 0)
(3 6.90818e-16 0)
(3 5.05003e-16 0)
(3 7.95326e-16 0)
(3 1.14988e-15 0)
(3 5.74901e-16 0)
(3 -4.26969e-17 0)
(3 3.32631e-16 0)
(3 1.06131e-15 0)
(3 8.80972e-16 0)
(3 9.92215e-16 0)
(3 -6.41318e-08 0)
(2.94419 0.183687 0)
(1.1178 0.51995 0)
(0.895941 0.46159 0)
(0.863313 0.47275 0)
(0.830344 0.487964 0)
(0.804173 0.500663 0)
(0.784584 0.512451 0)
(0.769206 0.52545 0)
(0.753546 0.539577 0)
(0.738606 0.556089 0)
(0.721466 0.574218 0)
(0.703391 0.594318 0)
(0.684181 0.615804 0)
(0.667056 0.641395 0)
(0.654838 0.674374 0)
(0.649895 0.71713 0)
(0.655167 0.771161 0)
(0.672134 0.838715 0)
(0.710307 0.927255 0)
(0.78694 1.03775 0)
(0.958187 1.14891 0)
(1.23409 1.22769 0)
(3 -7.72983e-18 0)
(3 9.49112e-17 0)
(3 2.09757e-16 0)
(3 9.4504e-17 0)
(3 -2.7812e-16 0)
(3 2.18486e-16 0)
(3 4.33076e-16 0)
(3 1.82361e-16 0)
(3 1.8116e-16 0)
(3 3.9395e-16 0)
(3 1.06549e-15 0)
(3 1.40891e-15 0)
(3 1.76581e-15 0)
(3 1.4336e-15 0)
(3 9.68983e-16 0)
(3 2.06132e-16 0)
(3 -7.55683e-17 0)
(3 5.26525e-16 0)
(3 5.54527e-16 0)
(3 5.01854e-16 0)
(3 9.32805e-16 0)
(3 1.35005e-15 0)
(3 1.08405e-15 0)
(3 7.9588e-16 0)
(3 1.33725e-15 0)
(3 -5.62737e-09 0)
(3.04351 0.00888138 0)
(1.32401 0.477943 0)
(0.914014 0.51318 0)
(0.883928 0.523982 0)
(0.85178 0.523921 0)
(0.824215 0.527613 0)
(0.803082 0.534794 0)
(0.786924 0.545745 0)
(0.773719 0.560129 0)
(0.763054 0.578089 0)
(0.752301 0.598756 0)
(0.741204 0.621545 0)
(0.729028 0.645283 0)
(0.717202 0.670908 0)
(0.709039 0.701681 0)
(0.708199 0.74054 0)
(0.718775 0.789632 0)
(0.74534 0.850308 0)
(0.794162 0.927464 0)
(0.888293 1.02204 0)
(1.05881 1.1055 0)
(1.29525 1.15732 0)
(3 -1.25849e-16 0)
(3 -1.75851e-16 0)
(3 -1.51522e-16 0)
(3 -3.36838e-17 0)
(3 1.70417e-16 0)
(3 2.835e-17 0)
(3 2.17016e-16 0)
(3 2.67526e-16 0)
(3 -2.04081e-16 0)
(3 -7.01997e-16 0)
(3 -6.44678e-16 0)
(3 3.03928e-16 0)
(3 1.30696e-15 0)
(3 1.90444e-15 0)
(3 2.22981e-15 0)
(3 1.76626e-15 0)
(3 4.96788e-16 0)
(3 -1.30598e-15 0)
(3 -1.66077e-15 0)
(3 -2.92775e-16 0)
(3 7.76489e-16 0)
(3 1.27077e-15 0)
(3 1.2181e-15 0)
(3 9.48687e-16 0)
(3 1.36181e-15 0)
(3 -1.58213e-10 0)
(3.00114 -7.53124e-06 0)
(1.63325 0.486621 0)
(0.893559 0.544076 0)
(0.868412 0.542667 0)
(0.856252 0.547603 0)
(0.840404 0.55194 0)
(0.824053 0.555674 0)
(0.808752 0.56337 0)
(0.796437 0.576125 0)
(0.787875 0.593762 0)
(0.781349 0.615528 0)
(0.775967 0.64033 0)
(0.771055 0.666695 0)
(0.766327 0.693885 0)
(0.763994 0.723725 0)
(0.768031 0.759188 0)
(0.782896 0.802694 0)
(0.814832 0.855101 0)
(0.870151 0.919134 0)
(0.969594 0.996858 0)
(1.12769 1.05901 0)
(1.32143 1.09288 0)
(3 -1.13312e-16 0)
(3 -1.41178e-16 0)
(3 -1.95001e-16 0)
(3 1.33123e-16 0)
(3 6.74107e-16 0)
(3 3.89215e-16 0)
(3 1.35477e-16 0)
(3 -1.09872e-17 0)
(3 -2.82139e-16 0)
(3 -1.43403e-16 0)
(3 1.7572e-16 0)
(3 2.52782e-16 0)
(3 5.87291e-16 0)
(3 9.69017e-16 0)
(3 1.39771e-15 0)
(3 1.03608e-15 0)
(3 5.07061e-17 0)
(3 -8.22751e-16 0)
(3 -7.95669e-16 0)
(3 -5.17386e-16 0)
(3 2.03669e-16 0)
(3 5.03765e-16 0)
(3 1.02108e-15 0)
(3 1.1649e-15 0)
(3 6.69913e-16 0)
(3 -7.69108e-13 0)
(3 -2.14133e-07 0)
(2.29924 0.468004 0)
(0.97536 0.588691 0)
(0.888444 0.540664 0)
(0.882419 0.552376 0)
(0.868558 0.566741 0)
(0.851835 0.575729 0)
(0.835419 0.583134 0)
(0.822208 0.593916 0)
(0.813253 0.610112 0)
(0.808546 0.631367 0)
(0.806783 0.656709 0)
(0.807476 0.684667 0)
(0.810138 0.713751 0)
(0.815024 0.743882 0)
(0.825524 0.776934 0)
(0.844976 0.815147 0)
(0.880482 0.859105 0)
(0.938801 0.908956 0)
(1.03468 0.969303 0)
(1.1723 1.01394 0)
(1.33591 1.03677 0)
(3 7.85144e-17 0)
(3 1.54493e-16 0)
(3 4.30825e-16 0)
(3 4.34321e-16 0)
(3 -4.10625e-17 0)
(3 -2.53555e-16 0)
(3 -7.2586e-17 0)
(3 7.60645e-17 0)
(3 1.44075e-16 0)
(3 6.61143e-16 0)
(3 1.50316e-15 0)
(3 1.3736e-15 0)
(3 8.19883e-16 0)
(3 2.61593e-16 0)
(3 1.79973e-17 0)
(3 -7.98834e-17 0)
(3 3.81486e-16 0)
(3 8.97646e-16 0)
(3 4.79954e-16 0)
(3 1.22967e-16 0)
(3 -5.54432e-16 0)
(3 -5.1652e-16 0)
(3 1.69069e-17 0)
(3 3.66252e-16 0)
(3 3.91275e-16 0)
(3 -2.11433e-16 0)
(3 -2.87112e-07 0)
(3.04426 0.128516 0)
(1.21896 0.579088 0)
(0.946646 0.554482 0)
(0.92542 0.574891 0)
(0.906437 0.587769 0)
(0.886456 0.595961 0)
(0.868387 0.602699 0)
(0.85342 0.611337 0)
(0.842477 0.625242 0)
(0.837187 0.644681 0)
(0.836959 0.668912 0)
(0.840658 0.696693 0)
(0.848836 0.726556 0)
(0.860189 0.757324 0)
(0.877773 0.789337 0)
(0.902306 0.823973 0)
(0.94169 0.861632 0)
(1.00038 0.899919 0)
(1.08885 0.945725 0)
(1.20802 0.978885 0)
(1.34624 0.994938 0)
(3 1.72206e-16 0)
(3 2.16536e-16 0)
(3 1.57842e-16 0)
(3 -2.03362e-17 0)
(3 -2.80898e-16 0)
(3 -7.24305e-16 0)
(3 -9.46506e-16 0)
(3 -7.45993e-16 0)
(3 -6.74656e-16 0)
(3 -1.09718e-16 0)
(3 7.05033e-17 0)
(3 -2.19168e-17 0)
(3 -8.4809e-17 0)
(3 -3.53393e-16 0)
(3 -1.35092e-15 0)
(3 -7.50535e-16 0)
(3 4.13519e-16 0)
(3 1.06248e-15 0)
(3 6.87791e-16 0)
(3 2.39185e-16 0)
(3 -1.69634e-16 0)
(3 -6.74515e-17 0)
(3 1.21479e-16 0)
(3 -2.70599e-16 0)
(3 -3.28881e-16 0)
(3 -9.52957e-16 0)
(3 -7.51224e-08 0)
(3.02852 0.00246085 0)
(1.44079 0.557622 0)
(0.950781 0.615611 0)
(0.924992 0.606504 0)
(0.91306 0.61468 0)
(0.901911 0.622511 0)
(0.891264 0.628136 0)
(0.880161 0.634334 0)
(0.871074 0.644628 0)
(0.865929 0.660561 0)
(0.866732 0.681984 0)
(0.87214 0.707472 0)
(0.883589 0.735872 0)
(0.899451 0.765849 0)
(0.922617 0.796573 0)
(0.95274 0.829266 0)
(0.996507 0.861938 0)
(1.05444 0.892216 0)
(1.13346 0.924425 0)
(1.23726 0.948466 0)
(1.35297 0.958935 0)
(3 2.55567e-17 0)
(3 -5.01962e-17 0)
(3 -3.14889e-16 0)
(3 1.57528e-16 0)
(3 4.97751e-17 0)
(3 -4.15353e-16 0)
(3 -8.3832e-16 0)
(3 -2.03806e-15 0)
(3 -1.45778e-15 0)
(3 -8.7193e-16 0)
(3 -5.22976e-16 0)
(3 -6.84639e-16 0)
(3 -9.82745e-16 0)
(3 -1.01392e-15 0)
(3 -1.16369e-15 0)
(3 1.27367e-16 0)
(3 8.91261e-16 0)
(3 6.23969e-16 0)
(3 4.91181e-16 0)
(3 9.7537e-16 0)
(3 1.8263e-15 0)
(3 3.76594e-16 0)
(3 1.41879e-16 0)
(3 1.35382e-17 0)
(3 -3.05802e-16 0)
(3 -6.57606e-16 0)
(3 -6.01311e-09 0)
(3.00042 -9.2553e-06 0)
(2.01798 0.557317 0)
(0.996909 0.654923 0)
(0.942317 0.61687 0)
(0.936647 0.62202 0)
(0.928654 0.633461 0)
(0.920127 0.643325 0)
(0.911001 0.651538 0)
(0.903198 0.661596 0)
(0.898133 0.675331 0)
(0.898581 0.694246 0)
(0.904164 0.717042 0)
(0.916701 0.742961 0)
(0.934757 0.770931 0)
(0.960946 0.799532 0)
(0.995351 0.829741 0)
(1.04297 0.860863 0)
(1.10116 0.886975 0)
(1.17325 0.91095 0)
(1.26483 0.92898 0)
(1.36326 0.935819 0)
(3 -1.28943e-16 0)
(3 -1.43617e-16 0)
(3 -1.38237e-17 0)
(3 2.99835e-18 0)
(3 -1.40575e-16 0)
(3 -3.0719e-16 0)
(3 -1.48957e-16 0)
(3 -2.68408e-17 0)
(3 7.13229e-16 0)
(3 7.22549e-17 0)
(3 -6.39634e-16 0)
(3 1.08727e-16 0)
(3 -2.69229e-17 0)
(3 -1.01319e-16 0)
(3 7.3487e-16 0)
(3 4.75346e-16 0)
(3 7.78589e-16 0)
(3 6.09501e-16 0)
(3 1.31704e-15 0)
(3 1.39167e-15 0)
(3 3.03499e-16 0)
(3 -1.99055e-16 0)
(3 3.79366e-16 0)
(3 8.91333e-16 0)
(3 1.36791e-15 0)
(3 1.33683e-15 0)
(3 -3.49947e-11 0)
(3.00003 -1.11418e-05 0)
(2.89772 0.243841 0)
(1.19298 0.650434 0)
(0.993704 0.622445 0)
(0.979693 0.636377 0)
(0.967499 0.64936 0)
(0.955252 0.659288 0)
(0.945118 0.668372 0)
(0.937467 0.678953 0)
(0.932434 0.691503 0)
(0.932236 0.707874 0)
(0.937181 0.727355 0)
(0.949404 0.749884 0)
(0.968059 0.774356 0)
(0.994845 0.799438 0)
(1.03036 0.825417 0)
(1.07854 0.853994 0)
(1.13606 0.876955 0)
(1.20454 0.896737 0)
(1.28552 0.910249 0)
(1.37279 0.913386 0)
(3 2.67627e-17 0)
(3 2.11076e-17 0)
(3 1.90194e-16 0)
(3 -7.23206e-17 0)
(3 -4.24987e-16 0)
(3 -1.25306e-16 0)
(3 -4.66547e-16 0)
(3 1.35048e-16 0)
(3 5.92769e-16 0)
(3 3.88826e-16 0)
(3 1.51066e-16 0)
(3 1.10742e-15 0)
(3 1.54473e-15 0)
(3 8.01513e-16 0)
(3 5.23976e-16 0)
(3 2.04034e-16 0)
(3 -5.92022e-17 0)
(3 3.28025e-16 0)
(3 3.31108e-16 0)
(3 8.14875e-17 0)
(3 -5.62005e-16 0)
(3 -5.71697e-16 0)
(3 -2.14131e-16 0)
(3 4.0568e-16 0)
(3 7.45664e-16 0)
(3 1.53211e-15 0)
(3 -3.99481e-14 0)
(3 -2.3523e-06 0)
(3.05357 0.0110255 0)
(1.44252 0.61938 0)
(1.00904 0.675195 0)
(0.98551 0.665835 0)
(0.977647 0.675108 0)
(0.972263 0.683379 0)
(0.968132 0.690493 0)
(0.965039 0.69954 0)
(0.963287 0.710078 0)
(0.964767 0.723831 0)
(0.970337 0.73935 0)
(0.981857 0.758077 0)
(1.00067 0.779334 0)
(1.02754 0.800976 0)
(1.06277 0.823119 0)
(1.10939 0.847908 0)
(1.16479 0.867865 0)
(1.23064 0.885723 0)
(1.30377 0.897165 0)
(1.3841 0.899697 0)
(3 1.2143e-16 0)
(3 5.42546e-17 0)
(3 -1.86871e-16 0)
(3 -5.7229e-16 0)
(3 -7.06734e-16 0)
(3 -3.1783e-16 0)
(3 -8.34784e-16 0)
(3 -5.6189e-16 0)
(3 -3.65484e-16 0)
(3 -1.57469e-16 0)
(3 3.72129e-16 0)
(3 4.90947e-16 0)
(3 7.12503e-16 0)
(3 6.70227e-16 0)
(3 5.94692e-16 0)
(3 3.93368e-16 0)
(3 -8.2822e-17 0)
(3 -2.88224e-16 0)
(3 -8.39173e-16 0)
(3 -5.57469e-16 0)
(3 -4.99837e-16 0)
(3 -5.90242e-16 0)
(3 -1.09335e-15 0)
(3 -1.27687e-15 0)
(3 -9.23511e-16 0)
(3 2.45193e-16 0)
(3 2.47277e-15 0)
(3 -1.96871e-07 0)
(3.0014 9.90013e-06 0)
(2.05435 0.596988 0)
(1.05655 0.718919 0)
(1.00568 0.678702 0)
(1.00271 0.681318 0)
(0.999844 0.691408 0)
(0.996561 0.701161 0)
(0.995174 0.711789 0)
(0.995341 0.722958 0)
(0.998131 0.735775 0)
(1.00445 0.749808 0)
(1.01541 0.764378 0)
(1.03336 0.782327 0)
(1.05907 0.800369 0)
(1.09247 0.819133 0)
(1.13525 0.838974 0)
(1.18615 0.855457 0)
(1.24672 0.870891 0)
(1.31306 0.880292 0)
(1.38875 0.882834 0)
(3 -1.75539e-16 0)
(3 9.86201e-17 0)
(3 3.30203e-16 0)
(3 3.91756e-16 0)
(3 3.64904e-16 0)
(3 3.88504e-16 0)
(3 1.37381e-16 0)
(3 1.50606e-16 0)
(3 4.22028e-16 0)
(3 6.73847e-17 0)
(3 -3.20635e-16 0)
(3 -8.37955e-16 0)
(3 -1.20211e-15 0)
(3 -3.75181e-16 0)
(3 -5.98454e-16 0)
(3 -1.03784e-15 0)
(3 -1.19168e-15 0)
(3 -1.02795e-15 0)
(3 -1.28558e-15 0)
(3 -1.0993e-15 0)
(3 -8.51347e-16 0)
(3 -6.43673e-16 0)
(3 -6.91464e-16 0)
(3 -1.24195e-15 0)
(3 -8.96235e-16 0)
(3 -2.99788e-16 0)
(3 8.84339e-16 0)
(3 -2.431e-09 0)
(3.00001 -1.30853e-06 0)
(2.98909 0.191475 0)
(1.28187 0.688109 0)
(1.05727 0.681083 0)
(1.04911 0.693494 0)
(1.04048 0.707389 0)
(1.03207 0.715477 0)
(1.02792 0.725639 0)
(1.02717 0.736898 0)
(1.02984 0.749503 0)
(1.03654 0.76256 0)
(1.04792 0.775231 0)
(1.06494 0.789186 0)
(1.08954 0.804195 0)
(1.12158 0.819985 0)
(1.16092 0.835548 0)
(1.20836 0.849895 0)
(1.26333 0.862221 0)
(1.32436 0.86947 0)
(1.39401 0.872454 0)
(3 -4.47794e-16 0)
(3 2.73378e-17 0)
(3 1.89308e-16 0)
(3 4.92527e-16 0)
(3 1.00166e-15 0)
(3 9.31205e-16 0)
(3 7.71509e-16 0)
(3 3.73865e-16 0)
(3 -1.6527e-16 0)
(3 -2.00515e-16 0)
(3 -4.19351e-16 0)
(3 -5.70012e-16 0)
(3 -1.34769e-15 0)
(3 -1.85103e-15 0)
(3 -1.93765e-15 0)
(3 -1.86904e-15 0)
(3 -1.01762e-15 0)
(3 -5.81304e-16 0)
(3 -5.61457e-16 0)
(3 -1.00164e-15 0)
(3 -3.44864e-16 0)
(3 7.42127e-17 0)
(3 -1.26876e-16 0)
(3 1.05367e-16 0)
(3 -8.19435e-17 0)
(3 -1.91083e-16 0)
(3 -1.29097e-16 0)
(3 -3.34574e-12 0)