/*--------------------------------*- C++ -*----------------------------------*\
  =========                 |
  \\      /  F ield         | OpenFOAM: The Open Source CFD Toolbox
   \\    /   O peration     | Website:  https://openfoam.org
    \\  /    A nd           | Version:  7
     \\/     M anipulation  |
\*---------------------------------------------------------------------------*/
FoamFile
{
    version     2.0;
    format      ascii;
    class       volScalarField;
    location    "1.6";
    object      T;
}
// * * * * * * * * * * * * * * * * * * * * * * * * * * * * * * * * * * * * * //

dimensions      [0 0 0 1 0 0 0];

internalField   nonuniform List<scalar> 
4032
(
1
1
1
1
1
1
1
1
1
1
1
1
1.80777
2.66373
2.76031
2.78427
2.80001
2.80346
2.80286
2.80394
2.81677
2.84604
2.87779
2.89505
1
1
1
1
1
1
1
1
1
1
1
1
1.78639
2.65497
2.75768
2.78138
2.79691
2.80037
2.79981
2.80089
2.81356
2.84221
2.8734
2.89032
1
1
1
1
1
1
1
1
1
1
1
1
1.72215
2.63267
2.74925
2.77397
2.79078
2.79505
2.79485
2.79617
2.80876
2.83679
2.86742
2.88432
1
1
1
1
1
1
1
1
1
1
1
1
1.61297
2.59002
2.73389
2.76226
2.7818
2.78725
2.78764
2.78925
2.8016
2.82882
2.85857
2.87495
1
1
1
1
1
1
1
1
1
1
1
1
1.46734
2.52889
2.71431
2.74755
2.77028
2.77745
2.77844
2.77963
2.7901
2.81526
2.84397
2.86164
1
1
1
1
1
1
1
1
1
1
1
1
1.27046
2.43946
2.69373
2.72581
2.75233
2.76324
2.76602
2.76732
2.77625
2.79904
2.82466
2.8351
1
1
1
1
1
1
1
1
1
1
1
1
1.04028
2.33206
2.68418
2.70974
2.73373
2.74618
2.74869
2.74911
2.7539
2.76711
2.78782
2.7976
1
1
1
1
1
1
1
1
1
1
1
1
1.00054
2.19638
2.64934
2.67968
2.70154
2.71661
2.72111
2.72153
2.72237
2.73157
2.75603
2.78993
1
1
1
1
1
1
1
1
1
1
1
1
1
1.98925
2.61337
2.66544
2.68536
2.69697
2.69856
2.69603
2.68885
2.68004
2.64997
2.57066
1
1
1
1
1
1
1
1
1
1
1
1
1
1.67181
2.51586
2.63855
2.66447
2.67729
2.67594
2.66819
2.65178
2.62192
2.57681
2.43116
1
1
1
1
1
1
1
1
1
1
1
1
1
1.22712
2.35805
2.61902
2.63911
2.65029
2.64804
2.63673
2.61488
2.57407
2.51438
2.34449
1
1
1
1
1
1
1
1
1
1
1
1
1
1.01362
2.19483
2.5651
2.60065
2.61292
2.61165
2.60052
2.57699
2.53571
2.46042
2.30988
1
1
1
1
1
1
1
1
1
1
1
1
1
1.00001
1.84681
2.48987
2.57342
2.5838
2.5811
2.56818
2.54143
2.49913
2.41979
2.30009
1
1
1
1
1
1
1
1
1
1
1
1
1
0.999998
1.30973
2.34599
2.55306
2.54536
2.54136
2.52955
2.50494
2.46198
2.39068
2.299
1
1
1
1
1
1
1
1
1
1
1
1
1
0.999999
1.02256
2.16697
2.50541
2.49372
2.49566
2.48744
2.46836
2.42875
2.36945
2.29472
1
1
1
1
1
1
1
1
1
1
1
1
1
1
1.00007
1.719
2.40152
2.47444
2.46832
2.4559
2.43528
2.40138
2.35249
2.28973
1
1
1
1
1
1
1
1
1
1
1
1
1
1
1
1.13587
2.20195
2.45203
2.44052
2.42667
2.40493
2.37503
2.33375
2.2814
1
1
1
1
1
1
1
1
1
1
1
1
1
1
1
1.00377
1.84791
2.359
2.41335
2.39957
2.37906
2.35057
2.31425
2.27108
1
1
1
1
1
1
1
1
1
1
1
1
1
1
1
1
1.22365
2.16564
2.38733
2.37037
2.3532
2.3279
2.29566
2.2586
1
1
1
1
1
1
1
1
1
1
1
1
1
1
1
1
1.0106
1.83258
2.30251
2.33705
2.322
2.30094
2.27347
2.24184
1
1
1
1
1
1
1
1
1
1
1
1
1
1
1
1
1.00003
1.23195
2.09748
2.31187
2.29149
2.27598
2.25355
2.22594
1
1
1
1
1
1
1
1
1
1
1
1
1
1
1
1
1
1.01124
1.67702
2.19575
2.26608
2.24782
2.22875
2.20518
1
1
1
1
1
1
1
1
1
1
1
1
1
1
1
1
1
1.00006
1.14472
1.96426
2.24189
2.22162
2.20542
2.1842
1
1
1
1
1
1
1
1
1
1
1
1
1
1
1
1
1
1
1.00434
1.44652
2.07041
2.19959
2.17532
2.15725
1
1
1
1
1
1
1
1
1
1
1
1
1
1
1
1
1
1
1.00002
1.05262
1.74602
2.1303
2.15304
2.13833
1
1
1
1
1
1
1
1
1
1
1
1
1
1
1
1
1
1
1
1.00078
1.21539
1.90434
2.12704
2.11715
1
1
1
1
1
1
1
1
1
1
1
1
1
1
1
1
1
1
1
1
1.01038
1.42339
1.97099
2.09611
1
1
1
1
1
1
1
1
1
1
1
1
1
1
1
1
1
1
1
1
1.00008
1.04962
1.6062
1.99203
1
1
1
1
1
1
1
1
1
1
1
1
1
1
1
1
1
1
1
1
1
1.00083
1.13411
1.73064
1
1
1
1
1
1
1
1
1
1
1
1
1
1
1
1
1
1
1
1
1
1
1.00457
1.25093
1
1
1
1
1
1
1
1
1
1
1
1
1
1
1
1
1
1
1
1
1
1
1.00003
1.0161
1
1
1
1
1
1
1
1
1
1
1
1
1
1
1
1
1
1
1
1
1
1
1
1.00018
1
1
1
1
1
1
1
1
1
1
1
1
1
1
1
1
1
1
1
1
1
1
1
1
1
1
1
1
1
1
1
1
1
1
1
1
1
1
1
1
1
1
1
1
1
1
1
1
1
1
1
1
1
1
1
1
1
1
1
1
1
1
1
1
1
1
1
1
1
1
1
1
1
1
1
1
1
1
1
1
1
1
1
1
1
1
1
1
1
1
1
1
1
1
1
1
1
1
1
1
1
1
1
1
1
1
1
1
1
1
1
1
1
1
1
1
1
1
1
1
1
1
1
1
1
1
1
1
1
1
1
1
1
1
1
1
1
1
1
1
1
1
1
1
1
1
1
1
1
1
1
1
1
1
1
1
1
1
1
1
1
1
1
1
1
1
1
1
1
1
1
1
1
1
1
1
1
1
1
1
1
1
1
1
1
1
1
1
1
1
1
1
1.73945
1.24461
1.01375
1.00408
1.09644
1.24176
1.33384
1.46295
1.64906
1.72991
1.72934
1.70351
1.70156
1.72872
1.79029
1.81554
1.80981
1.79514
1.7767
1.77002
1.76554
1.75663
1.74108
1.73856
1.74005
1.74053
1.7404
1.74071
1.73683
1.73174
1.72984
1.72916
1.72947
1.7276
1.72149
1.71636
1.71486
1.71065
1.70917
1.70862
1.7067
1.70552
1.70318
1.70076
1.70078
1.69933
1.70296
1.72298
1.80536
1.97322
2.17757
2.35219
2.48069
2.56721
2.62653
2.6263
2.60466
2.57196
2.52148
2.47949
2.4503
2.42535
2.40546
2.3879
2.37202
2.35856
2.34561
2.33171
2.31694
2.30136
2.29252
2.28802
2.28263
2.27752
2.27249
2.26646
2.25826
2.24411
2.22469
2.20769
2.19672
2.1885
2.17976
2.16969
2.15868
2.14802
2.13663
2.12125
2.09634
2.06949
2.05641
2.04692
2.03722
2.03242
2.03547
2.02349
1.95775
1.69109
1.58656
1.42328
1.31589
1.30047
1.29024
1.31497
1.35836
1.38617
1.41449
1.44727
1.4848
1.52705
1.58828
1.65364
1.67801
1.68367
1.68621
1.69083
1.69596
1.69565
1.69165
1.68993
1.69268
1.69417
1.6954
1.69897
1.69932
1.6985
1.69823
1.69854
1.69953
1.69823
1.693
1.68787
1.6846
1.68063
1.68122
1.6843
1.68457
1.68367
1.68177
1.67868
1.67513
1.6825
1.71919
1.81748
1.95781
2.06014
2.07908
2.109
2.18252
2.26903
2.33448
2.37871
2.41049
2.42854
2.42967
2.4222
2.40759
2.39119
2.37487
2.35706
2.34039
2.32808
2.31734
2.3038
2.28983
2.27823
2.26769
2.25769
2.24964
2.24401
2.23874
2.23389
2.22767
2.21856
2.20623
2.19178
2.17766
2.16794
2.16003
2.15187
2.14176
2.13136
2.12108
2.10897
2.09128
2.06527
2.04381
2.0327
2.02403
2.01737
2.01577
2.00443
2.06474
1.85339
1.74316
1.6206
1.48909
1.42119
1.3763
1.31691
1.30318
1.28156
1.28141
1.31342
1.34796
1.36973
1.39842
1.45686
1.5002
1.52754
1.55933
1.58449
1.59743
1.60622
1.61156
1.61336
1.6208
1.62349
1.62211
1.6222
1.6236
1.62503
1.62473
1.62379
1.62397
1.62436
1.62405
1.6247
1.62425
1.62219
1.62259
1.62434
1.62584
1.62671
1.62549
1.62751
1.64266
1.70214
1.82867
1.95608
2.00741
2.01477
2.00226
1.99009
1.96973
1.98519
2.03453
2.10831
2.17664
2.23517
2.2776
2.30876
2.31372
2.31578
2.30875
2.2942
2.27745
2.26258
2.24877
2.23412
2.22064
2.21219
2.20463
2.19652
2.18765
2.17934
2.17399
2.16835
2.16197
2.15653
2.15132
2.14409
2.13324
2.11935
2.10704
2.09703
2.08676
2.07679
2.06872
2.06181
2.05259
2.036
2.01214
1.99435
1.98579
1.97897
1.97366
1.96165
2.1264
1.97094
1.84398
1.7382
1.64056
1.56468
1.49554
1.42606
1.39515
1.36636
1.32966
1.31498
1.30303
1.29995
1.30744
1.32914
1.36443
1.40153
1.44057
1.47312
1.48635
1.49939
1.51629
1.52773
1.5394
1.55071
1.55581
1.5586
1.56151
1.56289
1.56143
1.55496
1.55065
1.55103
1.55259
1.55395
1.55397
1.55472
1.55554
1.55508
1.55504
1.55743
1.56707
1.59086
1.67773
1.83044
1.92352
1.98229
1.98054
1.96823
1.94851
1.92279
1.90363
1.89082
1.87896
1.89074
1.92604
1.99223
2.07346
2.14588
2.18395
2.19722
2.20299
2.20074
2.19484
2.19192
2.18798
2.18126
2.17126
2.16069
2.14873
2.13724
2.12516
2.11192
2.10082
2.09155
2.08288
2.0768
2.07165
2.06563
2.05779
2.04699
2.03423
2.0242
2.01641
2.00892
2.00269
1.99757
1.99117
1.98042
1.96333
1.94395
1.92881
1.91984
1.91345
1.90116
2.1619
2.04208
1.93509
1.82518
1.74158
1.67302
1.6013
1.52807
1.48021
1.4395
1.3947
1.36699
1.34846
1.32426
1.30675
1.31018
1.31331
1.32359
1.34532
1.37664
1.40272
1.42281
1.44798
1.46634
1.47505
1.48432
1.49725
1.5029
1.50505
1.51139
1.51855
1.51971
1.51982
1.52001
1.51894
1.51574
1.51108
1.5078
1.50426
1.50249
1.50525
1.51839
1.5681
1.6766
1.82177
1.92614
1.95695
1.95253
1.9381
1.91921
1.90383
1.89149
1.88093
1.86895
1.85424
1.83989
1.83012
1.83495
1.86411
1.92437
1.99826
2.06109
2.09315
2.11339
2.12332
2.12473
2.1229
2.12546
2.12741
2.12269
2.11388
2.10093
2.08414
2.06434
2.04448
2.0282
2.01797
2.01124
2.00375
1.99602
1.99012
1.984
1.9732
1.96196
1.95649
1.95139
1.94581
1.94014
1.9336
1.92523
1.91466
1.90063
1.88208
1.86341
1.85015
1.83624
2.1949
2.0917
1.9958
1.90549
1.82025
1.74695
1.67961
1.61388
1.56432
1.52371
1.47374
1.43579
1.41486
1.38833
1.36002
1.3463
1.32983
1.31968
1.31827
1.32153
1.32808
1.34126
1.36719
1.40109
1.42135
1.43399
1.455
1.46636
1.46893
1.47452
1.48424
1.48988
1.49577
1.49948
1.49912
1.49681
1.4926
1.48644
1.48091
1.48126
1.49471
1.5721
1.71883
1.84371
1.92628
1.93601
1.92901
1.92202
1.91789
1.91039
1.89653
1.88208
1.86839
1.85308
1.83609
1.82243
1.81329
1.80696
1.80226
1.80376
1.82156
1.86075
1.91894
1.97298
2.01987
2.04269
2.0555
2.06648
2.07616
2.0756
2.07124
2.06556
2.0565
2.04189
2.02015
1.99712
1.98394
1.97512
1.96522
1.95566
1.94862
1.94153
1.93112
1.91904
1.91341
1.90996
1.90462
1.8969
1.88876
1.88125
1.87368
1.86365
1.84796
1.8253
1.80618
1.79001
2.21238
2.12842
2.03983
1.9602
1.88688
1.81494
1.74872
1.686
1.62932
1.58554
1.54827
1.51258
1.47835
1.44336
1.40745
1.38386
1.36169
1.33311
1.32573
1.32079
1.31724
1.32033
1.3271
1.34015
1.35505
1.36976
1.38808
1.41167
1.42868
1.43883
1.45648
1.46915
1.47762
1.48292
1.48347
1.48203
1.47895
1.47569
1.47687
1.4972
1.59382
1.77408
1.89107
1.92304
1.93026
1.92833
1.92531
1.91678
1.90536
1.89541
1.88213
1.86706
1.85304
1.83768
1.82179
1.812
1.80404
1.79418
1.78729
1.78226
1.77598
1.77107
1.76972
1.7855
1.82173
1.86663
1.91489
1.95158
1.98596
2.0025
2.0155
2.01691
2.0141
2.00807
1.99583
1.97788
1.96223
1.95154
1.94234
1.93423
1.9255
1.91525
1.90432
1.89236
1.88076
1.8741
1.86815
1.86095
1.85409
1.84778
1.84099
1.83311
1.8224
1.80405
1.78231
1.76332
2.22233
2.14906
2.07196
2.00386
1.93507
1.8644
1.80138
1.74774
1.69194
1.63908
1.60059
1.57007
1.53241
1.49948
1.47068
1.4442
1.41728
1.38342
1.36727
1.35547
1.33805
1.32998
1.32972
1.32472
1.31813
1.31841
1.3223
1.33415
1.35668
1.38053
1.40676
1.44088
1.45323
1.46261
1.46714
1.46539
1.46495
1.47156
1.52535
1.64709
1.81367
1.9183
1.93898
1.93942
1.93531
1.92385
1.91339
1.8996
1.88492
1.87485
1.86546
1.85302
1.84018
1.82552
1.81248
1.80175
1.78909
1.77848
1.77177
1.76451
1.75637
1.74761
1.73973
1.72901
1.71732
1.7064
1.71905
1.7491
1.79705
1.84909
1.89417
1.92544
1.9429
1.95179
1.94998
1.94391
1.93059
1.92168
1.91861
1.91471
1.90871
1.90034
1.88999
1.87705
1.86081
1.84777
1.83939
1.83251
1.8259
1.81897
1.81098
1.80388
1.79708
1.78645
1.77127
1.74874
2.22379
2.15891
2.09392
2.0331
1.96909
1.90187
1.84803
1.79309
1.74113
1.68947
1.65472
1.61808
1.58012
1.54276
1.51969
1.49372
1.46589
1.43628
1.41552
1.39726
1.37326
1.34929
1.33992
1.32889
1.31712
1.31255
1.31229
1.31144
1.31249
1.32069
1.33824
1.36799
1.39744
1.42031
1.44268
1.44568
1.45488
1.55392
1.73592
1.85858
1.94064
1.94787
1.94221
1.93335
1.92385
1.90643
1.88786
1.87381
1.86161
1.85233
1.84589
1.83605
1.82339
1.80911
1.79673
1.7845
1.76939
1.75716
1.74931
1.74166
1.73314
1.72512
1.71575
1.70342
1.69014
1.67852
1.65929
1.63721
1.63627
1.65103
1.68379
1.73379
1.7815
1.82206
1.85127
1.87254
1.88083
1.87237
1.86876
1.87082
1.8738
1.87198
1.86851
1.86164
1.84757
1.83121
1.81661
1.80617
1.79862
1.79018
1.78089
1.77087
1.76284
1.75655
1.74952
1.73397
2.22184
2.16511
2.10877
2.05346
1.992
1.9322
1.88227
1.83223
1.78043
1.73398
1.69808
1.65912
1.62255
1.58841
1.56286
1.53514
1.50665
1.47705
1.45862
1.44022
1.41809
1.39231
1.37746
1.36215
1.33817
1.32791
1.32251
1.3134
1.30682
1.30621
1.30683
1.30943
1.32098
1.34099
1.37384
1.41183
1.52742
1.76513
1.89423
1.93825
1.9573
1.95593
1.94747
1.92559
1.90771
1.88917
1.86843
1.85396
1.84129
1.82947
1.82092
1.81098
1.79734
1.7849
1.77579
1.76649
1.75249
1.73532
1.72278
1.71373
1.70448
1.69551
1.68556
1.67374
1.66175
1.65012
1.63811
1.6236
1.60098
1.5809
1.56988
1.57331
1.58645
1.61519
1.65812
1.70439
1.74821
1.77873
1.79524
1.80571
1.80776
1.81462
1.81844
1.81666
1.81229
1.80695
1.79772
1.78557
1.77433
1.76422
1.7544
1.74411
1.73392
1.72417
1.71757
1.70634
2.21577
2.16496
2.11552
2.06527
2.0085
1.95714
1.91002
1.86312
1.81241
1.77323
1.73568
1.6979
1.65894
1.62818
1.60225
1.57261
1.54518
1.51806
1.4977
1.47595
1.45055
1.42642
1.4108
1.39429
1.37056
1.35236
1.34133
1.32799
1.31081
1.30584
1.30375
1.30228
1.303
1.30716
1.33252
1.46321
1.71649
1.8558
1.89886
1.92046
1.91754
1.91065
1.89598
1.88684
1.87415
1.86313
1.85196
1.83723
1.821
1.80311
1.78928
1.77809
1.76696
1.75866
1.75348
1.74625
1.73455
1.71632
1.69512
1.68125
1.67092
1.66058
1.64978
1.64013
1.63237
1.62417
1.61501
1.60395
1.58857
1.56534
1.54459
1.53165
1.5222
1.51407
1.51587
1.52817
1.55159
1.58896
1.62559
1.66556
1.69584
1.72611
1.7448
1.74408
1.74786
1.75146
1.75125
1.74543
1.73741
1.73228
1.72749
1.72046
1.71261
1.70247
1.69122
1.67505
2.20488
2.16153
2.11811
2.07234
2.02146
1.97638
1.9331
1.8863
1.8395
1.805
1.76758
1.73103
1.69121
1.66427
1.63515
1.60558
1.57511
1.55232
1.53247
1.50874
1.48422
1.45959
1.44342
1.42569
1.40243
1.38464
1.37254
1.35934
1.33956
1.32721
1.31731
1.30936
1.31334
1.34819
1.48214
1.67273
1.82519
1.82153
1.82165
1.81779
1.81282
1.8141
1.81727
1.82233
1.82561
1.82172
1.81425
1.80104
1.78433
1.76732
1.75265
1.74418
1.73793
1.73654
1.73472
1.72514
1.71156
1.69463
1.67281
1.65258
1.63846
1.6274
1.61766
1.60842
1.60045
1.59473
1.58721
1.57911
1.56774
1.55119
1.53239
1.51467
1.49954
1.48682
1.47696
1.47028
1.46488
1.46444
1.46931
1.48267
1.51141
1.54896
1.59273
1.63379
1.65404
1.66622
1.68082
1.68104
1.67657
1.6738
1.67288
1.6775
1.67885
1.67524
1.66664
1.64847
2.19295
2.15527
2.11646
2.07472
2.03067
1.99062
1.95046
1.90437
1.86381
1.83009
1.79504
1.75703
1.72169
1.69539
1.66456
1.63516
1.60321
1.58362
1.562
1.53823
1.51135
1.49063
1.474
1.45521
1.43195
1.41403
1.40012
1.38521
1.36703
1.34834
1.33437
1.33342
1.3808
1.54783
1.71513
1.82175
1.82027
1.80079
1.77036
1.74792
1.73546
1.73485
1.73657
1.738
1.74241
1.74891
1.75011
1.74571
1.73354
1.72097
1.71311
1.7102
1.70955
1.71103
1.70778
1.69868
1.68612
1.6699
1.65117
1.63108
1.61246
1.59968
1.58994
1.57947
1.56908
1.55991
1.55281
1.54576
1.53868
1.53025
1.51895
1.50478
1.48767
1.46898
1.45372
1.44403
1.43656
1.42902
1.42251
1.41789
1.4152
1.41763
1.42954
1.45562
1.49165
1.51924
1.54313
1.56643
1.59126
1.59718
1.59994
1.60994
1.62146
1.62363
1.62167
1.6144
2.1765
2.14448
2.11045
2.07239
2.03315
1.99748
1.96066
1.9179
1.88193
1.84961
1.81684
1.77814
1.74824
1.72078
1.69111
1.65963
1.62973
1.61118
1.58726
1.56353
1.53704
1.51721
1.4992
1.47922
1.45632
1.44012
1.42596
1.41281
1.3943
1.37492
1.37847
1.43794
1.63177
1.7828
1.84796
1.8442
1.82042
1.78835
1.75916
1.73492
1.71856
1.70474
1.69412
1.68333
1.67162
1.6619
1.65348
1.64811
1.64621
1.64673
1.65177
1.6581
1.66052
1.65885
1.6583
1.65799
1.65138
1.64061
1.62822
1.61114
1.5926
1.57979
1.56821
1.5556
1.54328
1.53177
1.52293
1.51565
1.50883
1.50357
1.49648
1.48592
1.47334
1.45579
1.43511
1.42221
1.41404
1.40586
1.398
1.39001
1.38358
1.38094
1.37836
1.37515
1.37157
1.37052
1.37882
1.39541
1.41994
1.45087
1.4791
1.50136
1.52396
1.54498
1.56226
1.56359
2.15902
2.13148
2.10162
2.06769
2.0326
1.99983
1.96567
1.92844
1.89607
1.86559
1.83264
1.79609
1.76988
1.74263
1.71471
1.67981
1.65498
1.63505
1.61063
1.58527
1.55855
1.54208
1.52227
1.50225
1.47973
1.46312
1.44946
1.43438
1.41599
1.42247
1.49514
1.7056
1.86077
1.88181
1.87186
1.84558
1.81527
1.78651
1.76271
1.73676
1.71322
1.69402
1.6753
1.65848
1.64208
1.62717
1.61579
1.60625
1.59315
1.57692
1.56938
1.57144
1.57715
1.58103
1.58856
1.59356
1.59189
1.59261
1.59199
1.58203
1.56954
1.55879
1.54721
1.53546
1.52264
1.50837
1.49715
1.49002
1.48384
1.47666
1.46959
1.46184
1.45234
1.43996
1.42244
1.40414
1.39378
1.38563
1.37684
1.36754
1.35995
1.35323
1.34766
1.34393
1.33929
1.33178
1.32026
1.31003
1.30295
1.30752
1.32127
1.34335
1.3725
1.40417
1.43562
1.47157
2.13694
2.11387
2.0878
2.0591
2.02968
1.999
1.96693
1.93542
1.90684
1.87714
1.84394
1.81126
1.78679
1.76092
1.73282
1.69922
1.67687
1.65409
1.62988
1.60277
1.57958
1.56281
1.542
1.52218
1.49973
1.48241
1.47127
1.45684
1.47397
1.57991
1.76725
1.9283
1.92135
1.8992
1.87097
1.84176
1.8161
1.795
1.7748
1.74993
1.72044
1.6931
1.6693
1.64847
1.62994
1.61277
1.59725
1.58327
1.57151
1.56142
1.54714
1.52704
1.51312
1.5048
1.50545
1.50959
1.51277
1.52158
1.53113
1.53194
1.53175
1.52487
1.51307
1.50493
1.49525
1.48583
1.47664
1.46859
1.45868
1.44959
1.44024
1.43244
1.42616
1.41902
1.40657
1.38832
1.37445
1.36553
1.35614
1.34687
1.33843
1.33001
1.32195
1.31507
1.30958
1.30494
1.29974
1.29274
1.28581
1.27408
1.26394
1.25698
1.25827
1.26467
1.27782
1.31682
2.12061
2.10012
2.07606
2.05105
2.02591
1.99811
1.96733
1.93999
1.91326
1.88459
1.85275
1.82425
1.79987
1.77336
1.7442
1.71478
1.69427
1.6704
1.64625
1.61678
1.59732
1.57965
1.5598
1.54006
1.51781
1.501
1.49215
1.52686
1.686
1.85378
1.96762
1.96218
1.93235
1.89762
1.86617
1.84132
1.8202
1.80034
1.77929
1.75562
1.72729
1.69667
1.6697
1.64792
1.62871
1.61044
1.59328
1.5773
1.56125
1.5456
1.5304
1.51506
1.49784
1.48479
1.47333
1.46317
1.45466
1.45225
1.45384
1.45483
1.45879
1.45951
1.45518
1.44809
1.44979
1.45121
1.44553
1.43443
1.42982
1.42404
1.4145
1.40441
1.39764
1.39175
1.3821
1.3671
1.35578
1.34726
1.3387
1.33016
1.32059
1.3093
1.29837
1.29029
1.28348
1.27716
1.27422
1.27313
1.27034
1.26359
1.25101
1.23799
1.22831
1.22207
1.21773
1.21679
2.10058
2.08295
2.06174
2.04002
2.01752
1.9922
1.9641
1.93966
1.91396
1.88664
1.85604
1.83272
1.80758
1.78178
1.75195
1.72779
1.707
1.68232
1.65788
1.63099
1.61449
1.59509
1.57601
1.55271
1.53297
1.53048
1.57954
1.77567
1.94995
2.00618
1.99742
1.96544
1.92534
1.89246
1.86529
1.844
1.82364
1.80198
1.78002
1.7572
1.73161
1.70245
1.67345
1.64872
1.62709
1.60785
1.59081
1.5744
1.557
1.53895
1.52143
1.50488
1.48797
1.4725
1.45991
1.44782
1.43691
1.42406
1.41283
1.40617
1.40194
1.39594
1.38787
1.37746
1.37425
1.37981
1.38157
1.38239
1.3875
1.38851
1.38216
1.37169
1.36618
1.35947
1.34947
1.34196
1.33554
1.32799
1.32007
1.31232
1.30271
1.29088
1.27963
1.27032
1.26229
1.25553
1.25102
1.24787
1.24532
1.2433
1.2381
1.22615
1.21291
1.20409
1.19836
1.18893
2.08005
2.06162
2.04406
2.02537
2.00488
1.98159
1.95761
1.93475
1.91085
1.88427
1.8582
1.83694
1.81239
1.78546
1.75496
1.73605
1.71526
1.69267
1.66634
1.6439
1.62734
1.60781
1.58824
1.56463
1.5676
1.64208
1.84341
2.03062
2.04182
2.02456
1.98624
1.94879
1.91634
1.88881
1.86617
1.84486
1.82291
1.80019
1.77776
1.75559
1.73172
1.70402
1.67428
1.64809
1.62655
1.60775
1.59009
1.57232
1.55436
1.53662
1.51943
1.50208
1.48446
1.46863
1.45408
1.43937
1.42462
1.40926
1.3956
1.38666
1.37785
1.36732
1.35666
1.33991
1.32101
1.31446
1.31386
1.31331
1.31577
1.32227
1.3221
1.32088
1.32119
1.32057
1.31462
1.30541
1.30049
1.29574
1.28916
1.28167
1.2744
1.26781
1.26263
1.25602
1.24726
1.23937
1.23311
1.22845
1.22385
1.21752
1.21218
1.20664
1.19809
1.18911
1.18271
1.17207
2.06765
2.04629
2.02552
2.00974
1.99174
1.97004
1.94919
1.92789
1.90612
1.88077
1.85828
1.83678
1.81354
1.78803
1.762
1.74353
1.72121
1.69902
1.67326
1.6556
1.63852
1.62002
1.60045
1.61518
1.73016
1.92052
2.0773
2.0738
2.04513
2.00777
1.97359
1.94349
1.91499
1.88797
1.86361
1.84043
1.81692
1.79301
1.77006
1.7486
1.7273
1.70323
1.67497
1.64702
1.62422
1.60588
1.5895
1.57271
1.55456
1.53547
1.51663
1.49845
1.48101
1.4643
1.44778
1.43131
1.41569
1.40054
1.38651
1.37512
1.36331
1.35039
1.33807
1.32401
1.3035
1.28752
1.28214
1.27644
1.26916
1.26487
1.26114
1.25609
1.25448
1.25611
1.26227
1.2624
1.2599
1.26019
1.25803
1.25063
1.24085
1.2345
1.23225
1.23276
1.23103
1.22623
1.22005
1.21396
1.2073
1.1993
1.18957
1.18295
1.1786
1.17336
1.1673
1.15747
1.99729
2.03427
2.01615
1.99566
1.97647
1.95709
1.93827
1.919
1.89827
1.87497
1.85612
1.83525
1.81436
1.78767
1.76721
1.74835
1.72599
1.70373
1.6804
1.662
1.64658
1.63427
1.66547
1.83389
2.02182
2.10229
2.09486
2.06181
2.027
1.99571
1.9683
1.94384
1.91486
1.88247
1.85363
1.82993
1.80804
1.78582
1.76333
1.74088
1.71823
1.69455
1.669
1.643
1.61959
1.59983
1.58259
1.56617
1.54957
1.53213
1.51379
1.49471
1.47555
1.45754
1.44145
1.42688
1.41278
1.39851
1.3835
1.36903
1.35602
1.34239
1.3287
1.31494
1.29494
1.27494
1.2668
1.25889
1.25005
1.24164
1.23269
1.22424
1.21511
1.20644
1.20539
1.20467
1.20312
1.20563
1.21065
1.20996
1.20153
1.19513
1.19529
1.1971
1.19825
1.19931
1.20036
1.19853
1.19288
1.18359
1.17239
1.16272
1.15663
1.15036
1.14508
1.13803
1.78881
1.98922
2.0044
1.98575
1.96338
1.9452
1.92766
1.90915
1.88851
1.86955
1.85131
1.83243
1.8107
1.78679
1.77002
1.75127
1.73052
1.70443
1.68251
1.66858
1.6658
1.72728
1.92704
2.12374
2.14273
2.11595
2.08339
2.05043
2.01912
1.99126
1.96441
1.93695
1.90642
1.8745
1.84518
1.82037
1.79835
1.77676
1.75471
1.73197
1.70831
1.68398
1.66002
1.63709
1.61542
1.59537
1.57673
1.55854
1.54081
1.52386
1.50732
1.49047
1.4726
1.45411
1.43612
1.41974
1.40695
1.39465
1.38027
1.36645
1.35432
1.34065
1.32411
1.30699
1.28805
1.26967
1.25857
1.24964
1.239
1.2279
1.21782
1.20874
1.19919
1.18786
1.17994
1.1745
1.1689
1.16464
1.1625
1.1607
1.15846
1.15428
1.15132
1.15258
1.15662
1.16165
1.16642
1.16924
1.16842
1.16392
1.15494
1.1449
1.13847
1.13346
1.12837
1.12046
1.35167
1.82188
1.97381
1.97173
1.95218
1.9319
1.91568
1.89972
1.88092
1.86163
1.84463
1.82842
1.80872
1.78582
1.76853
1.74982
1.73203
1.70816
1.68754
1.69577
1.80157
2.02031
2.18862
2.18099
2.14189
2.09484
2.0625
2.03654
2.01112
1.98426
1.95564
1.92468
1.89357
1.86465
1.83817
1.8134
1.79002
1.76719
1.74409
1.72063
1.69699
1.67342
1.65036
1.62816
1.60721
1.58792
1.56965
1.55089
1.53116
1.51157
1.49404
1.47927
1.46515
1.45021
1.43356
1.41326
1.39285
1.37896
1.36812
1.35813
1.34907
1.33948
1.32661
1.30944
1.28645
1.26386
1.24966
1.23903
1.22959
1.22063
1.2101
1.2006
1.19137
1.18143
1.17274
1.16403
1.15401
1.14449
1.13868
1.13538
1.13168
1.12496
1.117
1.11265
1.11352
1.11767
1.12225
1.12528
1.12654
1.12613
1.12296
1.11593
1.1117
1.11113
1.11068
1.10591
1.03645
1.43462
1.83885
1.94717
1.94169
1.92218
1.9035
1.88778
1.87055
1.85485
1.83909
1.82306
1.80195
1.78334
1.76729
1.74932
1.73069
1.71184
1.73957
1.89665
2.0971
2.21921
2.21655
2.18093
2.13131
2.08625
2.05187
2.02447
1.99766
1.96948
1.9405
1.91151
1.88353
1.85738
1.8319
1.80613
1.78071
1.75573
1.73107
1.70759
1.6859
1.66508
1.6438
1.62125
1.59779
1.57555
1.55601
1.53819
1.52032
1.50179
1.48396
1.46852
1.45468
1.44115
1.4277
1.41149
1.39014
1.37227
1.36111
1.35162
1.34184
1.33089
1.31876
1.30601
1.28944
1.27229
1.25634
1.24014
1.2247
1.21371
1.20798
1.20103
1.19135
1.18138
1.17106
1.16014
1.14976
1.13926
1.12853
1.12057
1.11471
1.10983
1.10408
1.09493
1.08947
1.08727
1.08622
1.08496
1.08387
1.08322
1.0809
1.07472
1.07315
1.07429
1.07716
1.08203
1.00059
1.0651
1.49515
1.83782
1.92295
1.91601
1.8949
1.87649
1.86187
1.84709
1.8312
1.81619
1.79857
1.78225
1.76127
1.74595
1.73826
1.79005
2.00288
2.18559
2.22839
2.21401
2.18187
2.14845
2.11188
2.07675
2.04413
2.01296
1.98219
1.95177
1.92304
1.89622
1.87113
1.84655
1.82063
1.79363
1.76686
1.74079
1.71627
1.69439
1.67441
1.65492
1.63501
1.6138
1.59097
1.56753
1.54498
1.52419
1.50558
1.489
1.47345
1.45786
1.44185
1.42604
1.41168
1.39841
1.38399
1.36906
1.35835
1.34863
1.33586
1.32196
1.30723
1.29272
1.28326
1.27304
1.2584
1.24253
1.22886
1.21547
1.20188
1.19055
1.18206
1.17401
1.16537
1.15675
1.14796
1.13842
1.12677
1.11508
1.10831
1.10305
1.09681
1.08985
1.08287
1.07759
1.07261
1.06761
1.06338
1.05901
1.0519
1.04159
1.03651
1.03708
1.03892
1.04705
1
1.00149
1.09654
1.53155
1.83024
1.90086
1.89187
1.87066
1.85154
1.83659
1.82418
1.80875
1.7927
1.77518
1.75765
1.76312
1.86527
2.08872
2.25978
2.27896
2.25043
2.20221
2.15755
2.12118
2.0911
2.06162
2.03051
1.99911
1.96808
1.93761
1.90836
1.88076
1.85485
1.82967
1.80348
1.77637
1.74961
1.72411
1.70146
1.68172
1.66284
1.6431
1.62209
1.60043
1.57901
1.55806
1.53704
1.51548
1.49444
1.47698
1.46384
1.45112
1.43638
1.421
1.40443
1.3873
1.37216
1.36142
1.35282
1.34221
1.32924
1.31706
1.30597
1.29384
1.2797
1.26634
1.25659
1.24805
1.23555
1.21947
1.20197
1.18976
1.18417
1.18005
1.17587
1.16877
1.15837
1.14529
1.12922
1.11303
1.10516
1.10147
1.09702
1.089
1.07999
1.0733
1.06759
1.06205
1.05652
1.05038
1.04189
1.02846
1.01877
1.01719
1.01581
1.01663
1
1.00001
1.00291
1.1249
1.55567
1.81801
1.87722
1.86873
1.84785
1.82872
1.81226
1.79919
1.78557
1.76789
1.78572
1.94912
2.20243
2.29561
2.27911
2.25255
2.21522
2.17709
2.14011
2.10523
2.07359
2.0424
2.01078
1.98031
1.95088
1.92176
1.89285
1.86456
1.83706
1.80958
1.78146
1.7541
1.72904
1.70631
1.68622
1.66782
1.64977
1.63041
1.60854
1.58557
1.56451
1.546
1.52814
1.50936
1.4894
1.46889
1.45163
1.44067
1.43181
1.4203
1.40482
1.388
1.37018
1.35271
1.33968
1.33055
1.32412
1.3175
1.30803
1.29605
1.28194
1.26857
1.25625
1.24188
1.22609
1.20939
1.19973
1.19524
1.19069
1.18361
1.17392
1.16469
1.15441
1.14129
1.1274
1.11682
1.10911
1.10282
1.09582
1.08675
1.07813
1.07171
1.06605
1.06018
1.05417
1.04758
1.0385
1.02523
1.01524
1.01163
1.00898
1.00405
1
1
1.00002
1.00474
1.1484
1.5683
1.79702
1.85515
1.84651
1.8269
1.80646
1.79075
1.77601
1.81178
2.0473
2.28055
2.35178
2.33463
2.27956
2.22551
2.18264
2.15016
2.11998
2.08875
2.05574
2.02186
1.98927
1.95899
1.93018
1.9017
1.87329
1.84552
1.81854
1.79137
1.76305
1.73487
1.70995
1.68937
1.67139
1.65363
1.63546
1.61675
1.59614
1.57438
1.55406
1.53598
1.51937
1.50319
1.4859
1.46767
1.45109
1.43762
1.42489
1.41216
1.40447
1.39544
1.37893
1.35882
1.34395
1.33335
1.32317
1.31372
1.30281
1.29043
1.28353
1.27623
1.2631
1.24351
1.22382
1.2104
1.20063
1.1944
1.18936
1.18255
1.17305
1.16367
1.15675
1.14888
1.13933
1.13006
1.12066
1.11119
1.10162
1.09179
1.08336
1.07761
1.07264
1.06704
1.06071
1.05335
1.04349
1.02944
1.01748
1.00995
1.00566
0.998537
1
1
1
1.00004
1.00655
1.16686
1.55848
1.77886
1.83537
1.82689
1.80715
1.78852
1.84431
2.13778
2.37096
2.35876
2.32453
2.29349
2.25671
2.21205
2.16766
2.12879
2.09585
2.06524
2.03411
2.0024
1.97131
1.94115
1.91174
1.8828
1.85418
1.82648
1.80036
1.77457
1.74754
1.72076
1.69732
1.67802
1.66221
1.64767
1.62976
1.60799
1.58613
1.56601
1.54781
1.5306
1.51319
1.49467
1.47645
1.46165
1.44917
1.43667
1.42461
1.41397
1.40201
1.38683
1.36949
1.35106
1.33653
1.32715
1.31939
1.31204
1.30393
1.29427
1.28307
1.26925
1.25221
1.23318
1.21674
1.20757
1.20253
1.19767
1.1918
1.18453
1.17595
1.16618
1.15507
1.14342
1.13267
1.12202
1.11108
1.10074
1.09134
1.08317
1.07725
1.0728
1.06797
1.06205
1.0551
1.04682
1.03541
1.01995
1.00853
1.00305
0.999732
0.993248
1
1
1
1
1.00006
1.00841
1.17002
1.54377
1.76152
1.81302
1.81086
1.89554
2.19313
2.43051
2.42309
2.36775
2.30572
2.25796
2.22476
2.18877
2.1481
2.10772
2.07206
2.0406
2.01125
1.98284
1.95491
1.92689
1.8985
1.87007
1.84197
1.81412
1.78725
1.76185
1.737
1.71259
1.69076
1.67295
1.65649
1.63946
1.62012
1.59879
1.57856
1.56073
1.54443
1.52819
1.51117
1.49347
1.47633
1.4607
1.4468
1.4342
1.42265
1.41112
1.39784
1.3829
1.36651
1.35069
1.33864
1.32943
1.32048
1.31168
1.3029
1.29286
1.28057
1.26595
1.24881
1.23126
1.21854
1.20989
1.20279
1.19657
1.19023
1.18313
1.1749
1.16481
1.15313
1.14187
1.13135
1.12048
1.10894
1.09822
1.08895
1.08157
1.07665
1.07242
1.06745
1.0614
1.05442
1.04601
1.03401
1.01796
1.00636
1.00071
0.997298
0.990623
1
1
1
1
1
1.00008
1.00871
1.16616
1.53948
1.70934
1.88439
2.27678
2.42407
2.40211
2.37006
2.33606
2.29158
2.24655
2.20627
2.16956
2.13284
2.09527
2.05903
2.02608
1.99674
1.97017
1.94486
1.91939
1.89288
1.86529
1.83775
1.8118
1.78601
1.75849
1.73309
1.71599
1.70226
1.6858
1.66693
1.64475
1.62258
1.60479
1.58882
1.57357
1.55802
1.54148
1.52369
1.50503
1.4866
1.46993
1.45581
1.4435
1.43186
1.41989
1.40699
1.3927
1.37719
1.36227
1.34981
1.33949
1.33035
1.32173
1.31207
1.3005
1.28759
1.27346
1.25776
1.24201
1.22856
1.21763
1.20948
1.20319
1.19715
1.19045
1.18236
1.17245
1.16158
1.15073
1.13963
1.12724
1.11392
1.10257
1.0949
1.09054
1.08691
1.08249
1.07695
1.07034
1.06284
1.05367
1.04046
1.02392
1.01302
1.00716
1.0035
0.996473
1
1
1
1
1
1
1.00008
1.00971
1.17882
1.57754
2.21258
2.63936
2.59786
2.45266
2.36454
2.31951
2.27985
2.23824
2.19691
2.1595
2.12512
2.09066
2.05549
2.02154
1.99069
1.96305
1.93762
1.9134
1.88969
1.8657
1.83992
1.81022
1.77868
1.75261
1.73303
1.71501
1.69505
1.67475
1.65368
1.63204
1.6109
1.59241
1.57724
1.5626
1.54682
1.52952
1.51094
1.49189
1.47365
1.45757
1.44393
1.43144
1.41896
1.40611
1.39297
1.37971
1.36593
1.35174
1.3384
1.32698
1.31787
1.31016
1.30138
1.29001
1.27642
1.26146
1.24573
1.23073
1.21807
1.20782
1.19948
1.19257
1.18644
1.18023
1.17275
1.16302
1.15172
1.14057
1.12991
1.118
1.10445
1.09174
1.08387
1.08058
1.07754
1.07369
1.06861
1.0621
1.05442
1.04461
1.03035
1.01412
1.00439
0.998407
0.994681
0.987649
)
;

boundaryField
{
    inlet
    {
        type            fixedValue;
        value           uniform 1;
    }
    outlet
    {
        type            inletOutlet;
        inletValue      uniform 1;
        value           nonuniform List<scalar> 
32
(
2.02388
2.0051
1.962
1.90098
1.83628
1.79048
1.76356
1.74747
1.73284
1.70614
1.67484
1.64703
1.61206
1.56147
1.46851
1.3129
1.216
1.18869
1.17166
1.15731
1.13878
1.12053
1.10582
1.0825
1.0477
1.01687
1.00437
0.998952
0.993619
0.990988
0.996949
0.988171
)
;
    }
    bottom
    {
        type            symmetryPlane;
    }
    top
    {
        type            symmetryPlane;
    }
    obstacle
    {
        type            zeroGradient;
    }
    defaultFaces
    {
        type            empty;
    }
}


// ************************************************************************* //
