/*--------------------------------*- C++ -*----------------------------------*\
  =========                 |
  \\      /  F ield         | OpenFOAM: The Open Source CFD Toolbox
   \\    /   O peration     | Website:  https://openfoam.org
    \\  /    A nd           | Version:  7
     \\/     M anipulation  |
\*---------------------------------------------------------------------------*/
FoamFile
{
    version     2.0;
    format      ascii;
    class       volVectorField;
    location    "2.3";
    object      U;
}
// * * * * * * * * * * * * * * * * * * * * * * * * * * * * * * * * * * * * * //

dimensions      [0 1 -1 0 0 0 0];

internalField   nonuniform List<vector> 
4032
(
(3 2.76443e-17 0)
(3 -1.15035e-16 0)
(3 -8.25898e-17 0)
(3 1.2427e-16 0)
(3 -1.237e-16 0)
(3 -3.76822e-16 0)
(3 -2.40768e-16 0)
(3 -8.1145e-17 0)
(3 1.99084e-16 0)
(3 1.26164e-16 0)
(3 -5.88695e-16 0)
(3 -9.53559e-16 0)
(1.24687 0.015558 0)
(0.729435 0.0153686 0)
(0.670939 0.0219411 0)
(0.615062 0.0241631 0)
(0.556935 0.0256764 0)
(0.497316 0.027264 0)
(0.435021 0.0290766 0)
(0.369284 0.0312698 0)
(0.299084 0.0341754 0)
(0.222263 0.0382705 0)
(0.13807 0.0410878 0)
(0.0509676 0.0456139 0)
(3 -5.54522e-17 0)
(3 6.78229e-17 0)
(3 4.90477e-16 0)
(3 1.01136e-15 0)
(3 3.39855e-16 0)
(3 -3.66485e-16 0)
(3 -3.17756e-16 0)
(3 1.85435e-16 0)
(3 4.42932e-16 0)
(3 3.1598e-17 0)
(3 -6.11837e-16 0)
(3 -1.67137e-15 0)
(1.27348 0.0717143 0)
(0.723389 0.0619312 0)
(0.65822 0.068416 0)
(0.601073 0.0732999 0)
(0.541995 0.0769316 0)
(0.482153 0.0816004 0)
(0.420247 0.0874388 0)
(0.355592 0.0947863 0)
(0.287356 0.104295 0)
(0.213716 0.117608 0)
(0.132518 0.127092 0)
(0.0493197 0.140785 0)
(3 -8.72922e-17 0)
(3 1.22698e-16 0)
(3 8.3371e-16 0)
(3 8.54384e-16 0)
(3 6.72993e-16 0)
(3 1.76435e-16 0)
(3 -3.06733e-16 0)
(3 -4.93537e-16 0)
(3 -7.93365e-16 0)
(3 -7.45786e-16 0)
(3 -5.21911e-16 0)
(3 -1.7535e-15 0)
(1.35569 0.126349 0)
(0.734839 0.109298 0)
(0.66274 0.117998 0)
(0.603577 0.125491 0)
(0.542193 0.131172 0)
(0.480384 0.138397 0)
(0.416619 0.147353 0)
(0.3502 0.158528 0)
(0.280577 0.172537 0)
(0.207517 0.193365 0)
(0.127004 0.208545 0)
(0.0476254 0.230295 0)
(3 4.53501e-17 0)
(3 -5.04451e-17 0)
(3 -5.84337e-17 0)
(3 4.4127e-17 0)
(3 2.65288e-16 0)
(3 5.13805e-16 0)
(3 3.43671e-16 0)
(3 -2.31786e-16 0)
(3 -6.03722e-16 0)
(3 -4.60381e-16 0)
(3 -9.86444e-17 0)
(3 -2.40517e-16 0)
(1.48812 0.178011 0)
(0.751551 0.159842 0)
(0.670599 0.168953 0)
(0.611962 0.17852 0)
(0.550504 0.186486 0)
(0.488445 0.197056 0)
(0.423617 0.210405 0)
(0.355115 0.226822 0)
(0.282604 0.245272 0)
(0.208394 0.272617 0)
(0.126373 0.292667 0)
(0.0458462 0.31863 0)
(3 1.02902e-17 0)
(3 1.17152e-16 0)
(3 7.86843e-17 0)
(3 3.04003e-17 0)
(3 1.77584e-16 0)
(3 6.89066e-16 0)
(3 5.58562e-16 0)
(3 1.95587e-16 0)
(3 -2.03872e-17 0)
(3 -8.48393e-16 0)
(3 -9.84683e-16 0)
(3 -9.31362e-16 0)
(1.68424 0.224868 0)
(0.776712 0.214625 0)
(0.679583 0.220241 0)
(0.622443 0.230748 0)
(0.563587 0.240482 0)
(0.505586 0.254192 0)
(0.445401 0.272232 0)
(0.381271 0.294803 0)
(0.310732 0.317901 0)
(0.236964 0.352417 0)
(0.148349 0.381453 0)
(0.0566657 0.415246 0)
(3 -5.36056e-17 0)
(3 -1.10798e-17 0)
(3 2.9946e-16 0)
(3 4.11338e-16 0)
(3 5.08232e-16 0)
(3 5.29244e-17 0)
(3 -3.22497e-16 0)
(3 -6.04366e-16 0)
(3 -1.06834e-15 0)
(3 -2.12972e-15 0)
(3 -2.39201e-15 0)
(3 -4.46464e-15 0)
(1.95016 0.26923 0)
(0.80998 0.280154 0)
(0.683759 0.276377 0)
(0.625559 0.284635 0)
(0.567605 0.294486 0)
(0.51335 0.309904 0)
(0.459067 0.332038 0)
(0.401455 0.362639 0)
(0.332038 0.395179 0)
(0.255821 0.443602 0)
(0.161223 0.49135 0)
(0.0554916 0.534372 0)
(3 1.96699e-16 0)
(3 1.18589e-16 0)
(3 -6.25373e-17 0)
(3 9.88318e-17 0)
(3 9.06364e-17 0)
(3 -3.08974e-16 0)
(3 -9.02262e-16 0)
(3 -1.24092e-15 0)
(3 -1.7945e-15 0)
(3 -2.01831e-15 0)
(3 -1.90573e-15 0)
(3 -2.8724e-15 0)
(2.31595 0.299054 0)
(0.872933 0.359983 0)
(0.714161 0.334683 0)
(0.660863 0.344454 0)
(0.602683 0.351854 0)
(0.547258 0.365407 0)
(0.492879 0.389135 0)
(0.440415 0.427891 0)
(0.37793 0.472631 0)
(0.313178 0.533093 0)
(0.227029 0.600111 0)
(0.0993895 0.673396 0)
(3 2.54471e-17 0)
(3 1.44204e-18 0)
(3 -1.81094e-16 0)
(3 -1.01838e-16 0)
(3 -2.41148e-16 0)
(3 -6.64503e-16 0)
(3 -7.55582e-16 0)
(3 -1.03045e-15 0)
(3 -1.34734e-15 0)
(3 -1.33306e-15 0)
(3 -8.25819e-16 0)
(3 -3.89341e-16 0)
(2.81786 0.212293 0)
(1.01641 0.428415 0)
(0.796595 0.36383 0)
(0.747461 0.383816 0)
(0.681002 0.402038 0)
(0.616921 0.42114 0)
(0.556661 0.446445 0)
(0.504928 0.489593 0)
(0.447424 0.541949 0)
(0.385068 0.627148 0)
(0.271138 0.758502 0)
(0.14992 0.932645 0)
(3 -4.10777e-17 0)
(3 1.97686e-17 0)
(3 4.89553e-17 0)
(3 8.63433e-17 0)
(3 3.47631e-16 0)
(3 1.30096e-16 0)
(3 1.18429e-16 0)
(3 3.32567e-16 0)
(3 8.02758e-16 0)
(3 -1.04104e-16 0)
(3 -2.56706e-17 0)
(3 6.96423e-16 0)
(3.05561 0.0217067 0)
(1.21728 0.42713 0)
(0.848011 0.405981 0)
(0.812347 0.447455 0)
(0.758948 0.463939 0)
(0.700307 0.483149 0)
(0.640541 0.506648 0)
(0.588618 0.550278 0)
(0.534907 0.614259 0)
(0.493402 0.735075 0)
(0.461715 0.917351 0)
(0.579514 1.20645 0)
(3 -7.37111e-17 0)
(3 2.24469e-16 0)
(3 4.59948e-16 0)
(3 5.56824e-16 0)
(3 5.2873e-16 0)
(3 9.82874e-16 0)
(3 9.66822e-16 0)
(3 1.4472e-15 0)
(3 1.35554e-15 0)
(3 8.80101e-16 0)
(3 9.46586e-16 0)
(3 5.00176e-16 0)
(3.00353 2.77595e-05 0)
(1.43946 0.432199 0)
(0.845975 0.457862 0)
(0.806011 0.490183 0)
(0.77289 0.517188 0)
(0.738693 0.547063 0)
(0.702338 0.57496 0)
(0.66583 0.618269 0)
(0.635723 0.687176 0)
(0.627066 0.809385 0)
(0.685878 0.956337 0)
(0.970407 1.1307 0)
(3 -1.62755e-18 0)
(3 -2.36669e-16 0)
(3 -4.56048e-16 0)
(3 -2.46449e-16 0)
(3 -2.6565e-16 0)
(3 -1.51184e-17 0)
(3 3.677e-16 0)
(3 4.84784e-16 0)
(3 5.21846e-16 0)
(3 1.77607e-15 0)
(3 2.74537e-15 0)
(3 9.38206e-16 0)
(3.00001 -7.67163e-07 0)
(1.91178 0.476654 0)
(0.889652 0.523842 0)
(0.810121 0.519515 0)
(0.793546 0.547072 0)
(0.776908 0.58102 0)
(0.76267 0.617831 0)
(0.744992 0.663396 0)
(0.743102 0.73257 0)
(0.764155 0.838106 0)
(0.87908 0.95858 0)
(1.18478 1.06688 0)
(3 5.12659e-17 0)
(3 -7.04986e-16 0)
(3 -1.68351e-15 0)
(3 -1.57464e-15 0)
(3 -1.09631e-15 0)
(3 -9.26911e-17 0)
(3 1.01662e-15 0)
(3 9.26964e-16 0)
(3 1.39511e-15 0)
(3 2.20028e-15 0)
(3 2.08769e-15 0)
(3 1.31251e-15 0)
(3 -7.06829e-07 0)
(2.66424 0.347595 0)
(1.04856 0.602884 0)
(0.87237 0.548108 0)
(0.839894 0.570942 0)
(0.823107 0.605719 0)
(0.820095 0.648438 0)
(0.819847 0.698147 0)
(0.837794 0.764061 0)
(0.887 0.847668 0)
(1.02269 0.939509 0)
(1.27747 1.00092 0)
(3 -1.56653e-16 0)
(3 -4.02213e-16 0)
(3 -3.42186e-16 0)
(3 -2.10803e-16 0)
(3 5.49304e-17 0)
(3 6.61148e-16 0)
(3 1.07393e-15 0)
(3 1.83692e-15 0)
(3 1.78903e-15 0)
(3 1.23175e-15 0)
(3 1.12248e-15 0)
(3 9.79797e-16 0)
(3 -1.35628e-07 0)
(3.0809 0.0382455 0)
(1.37746 0.611385 0)
(0.97271 0.604354 0)
(0.915451 0.607955 0)
(0.883753 0.632507 0)
(0.879063 0.671486 0)
(0.888995 0.718538 0)
(0.91713 0.777899 0)
(0.98651 0.849182 0)
(1.12574 0.917711 0)
(1.33633 0.956968 0)
(3 3.44241e-17 0)
(3 1.55798e-16 0)
(3 8.35332e-16 0)
(3 8.38617e-16 0)
(3 8.57333e-16 0)
(3 5.71886e-16 0)
(3 4.66376e-16 0)
(3 1.14386e-15 0)
(3 9.98635e-16 0)
(3 1.16973e-15 0)
(3 9.1726e-16 0)
(3 8.30764e-16 0)
(3 -1.19679e-08 0)
(3.00648 0.000110114 0)
(1.80233 0.582626 0)
(1.0091 0.680205 0)
(0.958141 0.667868 0)
(0.940202 0.677588 0)
(0.938591 0.703096 0)
(0.952676 0.739943 0)
(0.987998 0.783932 0)
(1.06179 0.836314 0)
(1.18775 0.883976 0)
(1.35429 0.908575 0)
(3 -1.08818e-17 0)
(3 2.93524e-16 0)
(3 6.29822e-16 0)
(3 6.39907e-16 0)
(3 -1.80402e-16 0)
(3 -2.89793e-16 0)
(3 -1.84785e-16 0)
(3 1.63328e-16 0)
(3 7.73908e-16 0)
(3 9.45283e-16 0)
(3 6.21626e-16 0)
(3 4.93797e-16 0)
(3 -3.01941e-10 0)
(3.00003 -9.34583e-07 0)
(2.68385 0.356968 0)
(1.16025 0.704085 0)
(1.02247 0.689576 0)
(1.01477 0.698601 0)
(1.01079 0.723655 0)
(1.01873 0.754193 0)
(1.05525 0.79208 0)
(1.12688 0.831808 0)
(1.23526 0.864621 0)
(1.37267 0.880438 0)
(3 -9.02438e-17 0)
(3 1.74811e-16 0)
(3 -1.83094e-16 0)
(3 -4.01503e-16 0)
(3 -3.73795e-16 0)
(3 -4.64066e-16 0)
(3 -6.26404e-16 0)
(3 -8.5813e-16 0)
(3 -4.13849e-16 0)
(3 -4.12406e-16 0)
(3 -4.07268e-16 0)
(3 7.29873e-17 0)
(3 -5.5845e-13 0)
(3 -1.44268e-06 0)
(3.06764 0.0286903 0)
(1.48524 0.678825 0)
(1.07318 0.737873 0)
(1.0744 0.740869 0)
(1.06649 0.762043 0)
(1.07936 0.775637 0)
(1.1137 0.795892 0)
(1.17985 0.821546 0)
(1.27136 0.84219 0)
(1.38549 0.851167 0)
(3 5.68574e-18 0)
(3 -1.67566e-17 0)
(3 1.34027e-16 0)
(3 2.8216e-16 0)
(3 -7.32139e-18 0)
(3 -3.64369e-16 0)
(3 -2.13736e-16 0)
(3 -1.11521e-17 0)
(3 -1.61635e-16 0)
(3 -4.70924e-17 0)
(3 -1.1856e-16 0)
(3 1.31931e-16 0)
(3 9.76877e-17 0)
(3 -2.88366e-07 0)
(3.00362 0.000212356 0)
(2.14659 0.605551 0)
(1.1535 0.798722 0)
(1.11359 0.78271 0)
(1.11583 0.784303 0)
(1.13266 0.793531 0)
(1.16762 0.80851 0)
(1.22727 0.825726 0)
(1.3073 0.839162 0)
(1.40232 0.843572 0)
(3 4.52222e-17 0)
(3 -5.51621e-17 0)
(3 1.6923e-16 0)
(3 4.70089e-16 0)
(3 -5.97071e-16 0)
(3 -9.49193e-16 0)
(3 -7.92926e-16 0)
(3 -5.41415e-16 0)
(3 1.69295e-16 0)
(3 9.58921e-17 0)
(3 -7.89718e-17 0)
(3 6.75977e-16 0)
(3 8.02639e-16 0)
(3 -2.25191e-08 0)
(3.00001 2.24119e-07 0)
(3.02204 0.143467 0)
(1.46169 0.775438 0)
(1.17293 0.784967 0)
(1.18532 0.789896 0)
(1.19831 0.800668 0)
(1.22801 0.812086 0)
(1.2774 0.822883 0)
(1.34486 0.831099 0)
(1.42438 0.83298 0)
(3 1.56852e-16 0)
(3 -1.18836e-16 0)
(3 9.01659e-19 0)
(3 -7.83275e-17 0)
(3 -7.31043e-16 0)
(3 -1.00604e-15 0)
(3 -1.51347e-15 0)
(3 -2.08313e-15 0)
(3 -8.81179e-16 0)
(3 -5.03076e-16 0)
(3 -1.74375e-16 0)
(3 5.13634e-17 0)
(3 -3.62752e-16 0)
(3 -9.10017e-11 0)
(3 -4.43521e-07 0)
(3.01883 0.0026589 0)
(1.98054 0.69866 0)
(1.20997 0.83621 0)
(1.20199 0.831092 0)
(1.23513 0.833726 0)
(1.26985 0.840481 0)
(1.31653 0.845719 0)
(1.37515 0.847704 0)
(1.44402 0.843555 0)
(3 3.41966e-17 0)
(3 5.66675e-16 0)
(3 1.09559e-15 0)
(3 1.12297e-15 0)
(3 7.28251e-16 0)
(3 5.29056e-16 0)
(3 -3.03504e-16 0)
(3 -9.09454e-16 0)
(3 -8.78311e-16 0)
(3 1.22477e-16 0)
(3 1.55762e-16 0)
(3 -6.79987e-16 0)
(3 -6.39687e-16 0)
(3 -1.51875e-13 0)
(3 -8.0544e-08 0)
(3.00015 3.37692e-05 0)
(2.94222 0.237144 0)
(1.48178 0.838911 0)
(1.24002 0.820512 0)
(1.28247 0.830597 0)
(1.31485 0.841291 0)
(1.35952 0.845972 0)
(1.41138 0.845795 0)
(1.4722 0.839626 0)
(3 -8.81725e-17 0)
(3 6.01665e-17 0)
(3 1.54586e-16 0)
(3 1.15595e-16 0)
(3 1.09189e-15 0)
(3 1.19555e-15 0)
(3 4.37103e-16 0)
(3 -2.77957e-16 0)
(3 -4.76237e-16 0)
(3 -6.4882e-16 0)
(3 -8.45822e-16 0)
(3 -5.56158e-16 0)
(3 -8.92582e-17 0)
(3 4.09213e-16 0)
(3 -2.54125e-09 0)
(3 -5.29304e-07 0)
(3.02691 0.00741981 0)
(2.0091 0.728749 0)
(1.2963 0.871846 0)
(1.29887 0.868533 0)
(1.3361 0.869438 0)
(1.37863 0.870172 0)
(1.42904 0.866033 0)
(1.4845 0.857874 0)
(3 -8.49335e-19 0)
(3 -4.25764e-16 0)
(3 -9.42202e-16 0)
(3 -1.14515e-15 0)
(3 -2.89088e-16 0)
(3 2.2295e-16 0)
(3 2.65506e-16 0)
(3 5.1661e-16 0)
(3 2.20905e-16 0)
(3 -2.83987e-16 0)
(3 -5.82771e-16 0)
(3 -3.68378e-16 0)
(3 -6.49445e-17 0)
(3 7.90889e-16 0)
(3 -8.40698e-12 0)
(3 -1.48542e-07 0)
(3.00032 0.00016212 0)
(2.92351 0.24523 0)
(1.59235 0.883794 0)
(1.33285 0.864807 0)
(1.37336 0.86458 0)
(1.40724 0.865228 0)
(1.45346 0.860769 0)
(1.50368 0.854145 0)
(3 3.21856e-16 0)
(3 2.47431e-16 0)
(3 -3.47143e-16 0)
(3 -1.90888e-16 0)
(3 -9.91757e-17 0)
(3 4.9904e-17 0)
(3 6.67866e-16 0)
(3 6.90819e-16 0)
(3 7.12082e-16 0)
(3 1.04611e-15 0)
(3 6.10509e-16 0)
(3 -9.20126e-16 0)
(3 -1.17194e-15 0)
(3 -5.1306e-16 0)
(3 -3.66085e-15 0)
(3 -1.53409e-08 0)
(3 1.66508e-07 0)
(3.01923 0.0105624 0)
(2.26099 0.704565 0)
(1.41308 0.910151 0)
(1.3986 0.901028 0)
(1.43246 0.889116 0)
(1.469 0.881499 0)
(1.51235 0.873624 0)
(3 1.58119e-16 0)
(3 3.29803e-16 0)
(3 5.96204e-16 0)
(3 6.60467e-16 0)
(3 4.72987e-16 0)
(3 9.84333e-16 0)
(3 1.32838e-15 0)
(3 9.34177e-16 0)
(3 1.07575e-15 0)
(3 1.30588e-15 0)
(3 7.5867e-16 0)
(3 6.04758e-17 0)
(3 -6.26436e-16 0)
(3 -9.58634e-16 0)
(3 -5.81393e-16 0)
(3 -6.21442e-10 0)
(3 -5.8797e-10 0)
(3.00019 0.000254143 0)
(2.99052 0.155019 0)
(1.79951 0.859745 0)
(1.43328 0.911809 0)
(1.47466 0.899001 0)
(1.5026 0.88919 0)
(1.5391 0.877481 0)
(3 -2.5581e-16 0)
(3 3.45889e-17 0)
(3 1.83087e-16 0)
(3 9.04613e-17 0)
(3 1.84374e-16 0)
(3 6.01413e-16 0)
(3 5.63583e-16 0)
(3 7.92504e-16 0)
(3 9.43793e-16 0)
(3 3.57989e-16 0)
(3 3.16903e-17 0)
(3 -5.94277e-17 0)
(3 3.11893e-16 0)
(3 -4.0284e-16 0)
(3 -4.80021e-16 0)
(3 -4.94277e-12 0)
(3 -1.69801e-10 0)
(3 3.87541e-07 0)
(3.00643 0.00777945 0)
(2.60531 0.525335 0)
(1.59815 0.951996 0)
(1.48865 0.927888 0)
(1.52675 0.91594 0)
(1.55959 0.902629 0)
(3 -2.37187e-16 0)
(3 -2.71076e-16 0)
(3 -7.81511e-17 0)
(3 1.8279e-16 0)
(3 1.59071e-16 0)
(3 -2.67789e-16 0)
(3 -5.22899e-16 0)
(3 -3.06414e-19 0)
(3 1.25213e-16 0)
(3 -5.43072e-16 0)
(3 -1.12475e-15 0)
(3 -3.85511e-16 0)
(3 1.32842e-15 0)
(3 7.49289e-16 0)
(3 9.92101e-17 0)
(3 -7.73319e-15 0)
(3 -1.81581e-11 0)
(3 7.40358e-11 0)
(3.00002 0.000108087 0)
(3.01766 0.0569794 0)
(2.13045 0.783948 0)
(1.55998 0.941289 0)
(1.55811 0.933808 0)
(1.59 0.91518 0)
(3 2.3325e-17 0)
(3 -2.84801e-16 0)
(3 -1.40167e-16 0)
(3 -1.18996e-16 0)
(3 -6.13571e-16 0)
(3 -7.69312e-16 0)
(3 -5.48877e-16 0)
(3 -8.2785e-16 0)
(3 -1.28763e-15 0)
(3 -1.29789e-15 0)
(3 -1.24182e-15 0)
(3 -7.03597e-17 0)
(3 1.15007e-15 0)
(3 1.09131e-15 0)
(3 1.06588e-15 0)
(3 5.765e-16 0)
(3 -7.06379e-13 0)
(3 -7.83414e-13 0)
(3 1.15795e-07 0)
(3.00089 0.00253675 0)
(2.88044 0.261302 0)
(1.86789 0.885125 0)
(1.59293 0.950945 0)
(1.61837 0.93868 0)
(3 -1.29653e-16 0)
(3 -2.9985e-17 0)
(3 3.1265e-17 0)
(3 -1.00342e-17 0)
(3 -1.11006e-16 0)
(3 -3.46869e-16 0)
(3 -3.35859e-16 0)
(3 -2.29749e-16 0)
(3 -8.03651e-16 0)
(3 -1.31989e-15 0)
(3 -8.9883e-16 0)
(3 -1.17067e-16 0)
(3 1.88073e-16 0)
(3 3.84015e-17 0)
(3 1.72446e-16 0)
(3 1.24707e-15 0)
(3 -4.31091e-15 0)
(3 -2.60461e-13 0)
(3 4.12878e-11 0)
(3 1.25475e-05 0)
(3.00379 0.0177413 0)
(2.56255 0.529057 0)
(1.75981 0.947009 0)
(1.6319 0.958427 0)
(3 -1.65791e-17 0)
(3 -2.85778e-16 0)
(3 -3.76483e-16 0)
(3 -1.57753e-16 0)
(3 6.20479e-16 0)
(3 5.64866e-16 0)
(3 2.23272e-16 0)
(3 6.10642e-16 0)
(3 2.71432e-16 0)
(3 -3.11104e-16 0)
(3 -6.99849e-16 0)
(3 -3.60263e-16 0)
(3 -4.68518e-16 0)
(3 -3.91172e-16 0)
(3 1.32827e-16 0)
(3 3.11876e-16 0)
(3 3.10257e-16 0)
(3 -3.96182e-14 0)
(3 -3.67368e-14 0)
(3 8.33754e-09 0)
(2.99998 0.000376759 0)
(2.98681 0.06765 0)
(2.28924 0.725581 0)
(1.70107 0.96764 0)
(3 4.24187e-17 0)
(3 9.69033e-17 0)
(3 -1.38918e-16 0)
(3 -1.66723e-17 0)
(3 3.63411e-16 0)
(3 4.0088e-16 0)
(3 1.02938e-16 0)
(3 -2.14913e-16 0)
(3 1.62207e-16 0)
(3 6.70135e-16 0)
(3 7.40568e-16 0)
(3 -7.21859e-17 0)
(3 -1.36151e-15 0)
(3 -1.40881e-15 0)
(3 -1.46632e-15 0)
(3 -1.73807e-15 0)
(3 -1.06496e-15 0)
(3 -2.93861e-15 0)
(3 -1.60307e-14 0)
(3 2.61589e-12 0)
(3 6.79129e-07 0)
(2.99992 0.00305334 0)
(2.90965 0.196238 0)
(2.08431 0.828073 0)
(3 4.33932e-17 0)
(3 4.8074e-16 0)
(3 1.66029e-16 0)
(3 -2.64632e-17 0)
(3 5.96603e-17 0)
(3 -1.34709e-16 0)
(3 -4.36523e-16 0)
(3 -4.01663e-16 0)
(3 1.00792e-17 0)
(3 1.24961e-15 0)
(3 1.70552e-15 0)
(3 4.26255e-16 0)
(3 -3.56075e-16 0)
(3 -1.13831e-15 0)
(3 -1.72425e-15 0)
(3 -1.69395e-15 0)
(3 -1.35972e-15 0)
(3 -6.89452e-16 0)
(3 -2.342e-15 0)
(3 -2.1034e-15 0)
(3 4.52244e-10 0)
(3 1.56602e-05 0)
(2.9988 0.0129851 0)
(2.74654 0.368739 0)
(3 7.94802e-17 0)
(3 -1.29504e-16 0)
(3 -7.17753e-17 0)
(3 -3.62349e-16 0)
(3 -4.44343e-16 0)
(3 -6.83634e-16 0)
(3 -8.29429e-16 0)
(3 -1.00803e-15 0)
(3 -6.86073e-16 0)
(3 -3.92023e-16 0)
(3 4.68359e-16 0)
(3 9.00236e-16 0)
(3 6.87296e-16 0)
(3 2.20222e-16 0)
(3 1.20351e-16 0)
(3 -6.89781e-16 0)
(3 -7.07541e-16 0)
(3 -1.38015e-16 0)
(3 1.37589e-16 0)
(3 -2.058e-15 0)
(3 5.71331e-14 0)
(3 1.57898e-08 0)
(2.99996 0.00018019 0)
(2.99209 0.0346044 0)
(3 -1.00906e-16 0)
(3 -7.80563e-17 0)
(3 2.76487e-16 0)
(3 4.39132e-16 0)
(3 6.5175e-17 0)
(3 -1.13397e-16 0)
(3 -1.80582e-17 0)
(3 -4.05036e-16 0)
(3 -5.51032e-16 0)
(3 -7.58187e-16 0)
(3 -2.44832e-16 0)
(3 1.59086e-16 0)
(3 -2.14211e-16 0)
(3 -3.08091e-16 0)
(3 1.56469e-16 0)
(3 -2.93322e-16 0)
(3 -8.89132e-16 0)
(3 -1.0092e-15 0)
(3 -1.45875e-15 0)
(3 -1.37017e-15 0)
(3 -1.08811e-15 0)
(3 5.46639e-12 0)
(3 2.88909e-07 0)
(2.99979 0.00102576 0)
(3 1.53666e-16 0)
(3 4.48027e-16 0)
(3 4.19107e-16 0)
(3 9.9452e-16 0)
(3 9.03092e-16 0)
(3 1.15051e-15 0)
(3 1.22832e-15 0)
(3 1.02138e-15 0)
(3 5.44927e-16 0)
(3 3.03146e-16 0)
(3 1.03209e-16 0)
(3 -6.18943e-16 0)
(3 -1.19153e-15 0)
(3 -8.56e-16 0)
(3 -3.74486e-16 0)
(3 -1.73271e-16 0)
(3 -1.24293e-15 0)
(3 -2.21123e-15 0)
(3 -2.43165e-15 0)
(3 -9.04788e-16 0)
(3 -4.72663e-16 0)
(3 -2.16845e-16 0)
(3 2.06378e-10 0)
(3 2.8127e-06 0)
(3 5.17951e-17 0)
(3 5.59865e-16 0)
(3 5.93416e-16 0)
(3 5.14495e-16 0)
(3 2.96931e-16 0)
(3 3.49989e-16 0)
(3 4.7215e-16 0)
(3 4.996e-16 0)
(3 7.97366e-17 0)
(3 7.25525e-17 0)
(3 -3.14882e-16 0)
(3 -3.79476e-16 0)
(3 -1.49484e-16 0)
(3 9.64266e-18 0)
(3 4.34968e-16 0)
(3 6.13176e-16 0)
(3 -3.23452e-16 0)
(3 -1.78651e-15 0)
(3 -1.92848e-15 0)
(3 -1.80871e-15 0)
(3 -1.29924e-15 0)
(3 -1.8604e-15 0)
(3 1.59715e-14 0)
(3 3.11591e-09 0)
(3 -7.08111e-17 0)
(3 2.4006e-17 0)
(3 1.25565e-16 0)
(3 -8.54499e-16 0)
(3 -1.02018e-15 0)
(3 -8.43496e-16 0)
(3 -2.52968e-16 0)
(3 4.37036e-17 0)
(3 6.37267e-16 0)
(3 5.79909e-16 0)
(3 1.77558e-16 0)
(3 5.83167e-16 0)
(3 7.55868e-16 0)
(3 8.7009e-16 0)
(3 2.60473e-16 0)
(3 -2.03865e-16 0)
(3 -6.22473e-16 0)
(3 -1.4362e-15 0)
(3 -1.79008e-15 0)
(3 -1.60673e-15 0)
(3 -1.77472e-15 0)
(3 -2.23664e-15 0)
(3 -2.53668e-15 0)
(3 4.98808e-13 0)
(3 1.83192e-16 0)
(3 -6.19223e-16 0)
(3 -8.51417e-16 0)
(3 -1.10699e-15 0)
(3 -5.33789e-16 0)
(3 2.21714e-16 0)
(3 4.23389e-16 0)
(3 6.70561e-16 0)
(3 1.15066e-15 0)
(3 1.74328e-15 0)
(3 2.04424e-15 0)
(3 1.06685e-15 0)
(3 8.33599e-16 0)
(3 7.19683e-16 0)
(3 -4.32749e-16 0)
(3 -1.68227e-15 0)
(3 -1.97825e-15 0)
(3 -1.80792e-15 0)
(3 -2.07968e-15 0)
(3 -1.93028e-15 0)
(3 -1.70611e-15 0)
(3 -1.2131e-15 0)
(3 -1.03969e-15 0)
(3 -1.17815e-15 0)
(3 -4.13369e-17 0)
(3 -2.60692e-16 0)
(3 -3.56542e-16 0)
(3 2.36909e-16 0)
(3 3.2903e-16 0)
(3 1.83453e-16 0)
(3 4.18957e-16 0)
(3 9.40816e-16 0)
(3 9.63052e-16 0)
(3 1.14009e-15 0)
(3 1.1249e-15 0)
(3 8.71336e-16 0)
(3 8.10601e-16 0)
(3 4.2804e-16 0)
(3 -2.81469e-16 0)
(3 -5.72015e-16 0)
(3 -9.88897e-16 0)
(3 -1.53253e-15 0)
(3 -2.41902e-15 0)
(3 -2.75514e-15 0)
(3 -2.01984e-15 0)
(3 -6.54308e-16 0)
(3 3.56605e-16 0)
(3 1.38667e-16 0)
(3 -5.10343e-18 0)
(3 -7.09557e-17 0)
(3 1.90064e-16 0)
(3 1.66278e-16 0)
(3 -5.07527e-18 0)
(3 -3.85577e-16 0)
(3 6.38274e-17 0)
(3 5.08245e-16 0)
(3 1.01356e-15 0)
(3 1.48928e-15 0)
(3 1.42645e-15 0)
(3 1.35113e-15 0)
(3 1.23061e-15 0)
(3 1.2328e-15 0)
(3 1.43802e-15 0)
(3 1.82784e-15 0)
(3 1.44255e-15 0)
(3 -1.34071e-15 0)
(3 -2.81135e-15 0)
(3 -1.81139e-15 0)
(3 -8.36752e-16 0)
(3 -7.51367e-16 0)
(3 -5.76758e-16 0)
(3 7.501e-17 0)
(3 6.6702e-17 0)
(3 1.72437e-17 0)
(3 1.15765e-16 0)
(3 -3.12253e-16 0)
(3 -3.39692e-16 0)
(3 -2.29879e-16 0)
(3 7.72274e-17 0)
(3 1.58394e-16 0)
(3 4.06385e-16 0)
(3 1.04944e-15 0)
(3 9.96746e-16 0)
(3 7.56341e-16 0)
(3 5.98379e-16 0)
(3 6.61052e-16 0)
(3 1.28528e-15 0)
(3 1.94487e-15 0)
(3 1.10187e-15 0)
(3 -1.6054e-16 0)
(3 -5.46322e-16 0)
(3 -6.95259e-16 0)
(3 -6.12041e-16 0)
(3 -9.92546e-16 0)
(3 -1.51135e-15 0)
(3 -5.86531e-16 0)
(1.50159 1.28405 0)
(2.05422 1.22816 0)
(2.37341 1.66385 0)
(2.27475 0.770021 0)
(2.49883 0.26352 0)
(2.61969 -0.0917981 0)
(2.59953 -0.241591 0)
(2.49645 -0.316717 0)
(2.41416 -0.242002 0)
(2.4149 -0.264809 0)
(2.46601 -0.253589 0)
(2.4886 -0.22516 0)
(2.47096 -0.214274 0)
(2.44692 -0.171637 0)
(2.38201 -0.07429 0)
(2.33928 -0.0468725 0)
(2.33213 -0.0400465 0)
(2.39683 -0.0343286 0)
(2.45459 -0.0302657 0)
(2.45163 -0.0323445 0)
(2.43837 -0.0280287 0)
(2.40776 -0.0150851 0)
(2.3913 -0.00428893 0)
(2.38693 -0.0024588 0)
(2.3966 -0.00442852 0)
(2.41556 -0.0110707 0)
(2.42119 -0.01443 0)
(2.41757 -0.0137858 0)
(2.40595 -0.00728149 0)
(2.40093 0.000849389 0)
(2.40216 0.00275424 0)
(2.41367 0.00146232 0)
(2.43226 -0.00445618 0)
(2.43829 -0.00757675 0)
(2.43932 -0.00724697 0)
(2.43609 -0.000868192 0)
(2.42742 -0.00221281 0)
(2.37509 -0.0419583 0)
(2.13901 -0.160393 0)
(1.52042 -0.242964 0)
(1.20443 -0.154994 0)
(1.24988 -0.107683 0)
(1.35983 -0.0743854 0)
(1.402 -0.0335952 0)
(1.42675 -0.0155198 0)
(1.47975 -0.0115385 0)
(1.52875 -0.0124238 0)
(1.56953 -0.0085824 0)
(1.60345 -0.00312511 0)
(1.63517 -0.00130317 0)
(1.66145 -0.0011023 0)
(1.68365 -0.000668537 0)
(1.70426 0.000633797 0)
(1.72372 0.00317556 0)
(1.74649 0.00441157 0)
(1.77218 0.00426234 0)
(1.79958 0.00328754 0)
(1.82555 0.00181139 0)
(1.84895 0.00131899 0)
(1.87114 0.00120979 0)
(1.89082 0.00174231 0)
(1.90817 0.00319643 0)
(1.92248 0.00535258 0)
(1.93445 0.00727906 0)
(1.95135 0.00779206 0)
(1.97234 0.00772007 0)
(1.99415 0.00729829 0)
(2.01908 0.00626598 0)
(2.0463 0.00457954 0)
(2.07073 0.00330174 0)
(2.09425 0.00292869 0)
(2.11531 0.00289497 0)
(2.12308 0.00509483 0)
(2.11416 0.00870977 0)
(2.11667 0.0104508 0)
(2.13412 0.0104783 0)
(2.15322 0.0103217 0)
(2.17524 0.00962389 0)
(2.20242 0.00810269 0)
(2.2257 0.00688245 0)
(2.24678 0.00689626 0)
(2.26639 0.00704061 0)
(2.27296 0.00768279 0)
(2.2605 0.00945497 0)
(2.26332 0.0104287 0)
(2.28063 0.0106553 0)
(2.29845 0.0107613 0)
(2.31857 0.0106536 0)
(2.34444 0.00955085 0)
(2.36572 0.00776145 0)
(2.38478 0.00735843 0)
(2.40364 0.00740861 0)
(2.41502 0.00768174 0)
(2.40942 0.00912533 0)
(2.4043 0.0109161 0)
(2.42544 0.0113181 0)
(1.75693 1.10826 0)
(2.30627 0.703953 0)
(2.55294 0.51886 0)
(2.61383 0.167316 0)
(2.72708 -0.27105 0)
(2.7366 -0.547136 0)
(2.72718 -0.642836 0)
(2.7085 -0.614268 0)
(2.65094 -0.495099 0)
(2.5856 -0.380035 0)
(2.56071 -0.294387 0)
(2.58273 -0.277063 0)
(2.57706 -0.268813 0)
(2.48349 -0.215061 0)
(2.42895 -0.12445 0)
(2.41442 -0.0512438 0)
(2.41831 -0.00957285 0)
(2.45093 0.00580125 0)
(2.4798 0.0027158 0)
(2.47214 -0.0131983 0)
(2.45599 -0.0273113 0)
(2.44108 -0.0296274 0)
(2.42015 -0.00488555 0)
(2.41505 0.0205826 0)
(2.41812 0.0227731 0)
(2.43107 0.00072144 0)
(2.44745 -0.0277049 0)
(2.44901 -0.0371433 0)
(2.44489 -0.0330348 0)
(2.43966 -0.011541 0)
(2.44125 0.0127403 0)
(2.44443 0.0228755 0)
(2.44826 0.0187924 0)
(2.45675 0.0033617 0)
(2.4617 -0.00268325 0)
(2.45876 -0.00894057 0)
(2.4207 -0.06182 0)
(2.26514 -0.277943 0)
(1.95906 -0.594351 0)
(1.84992 -0.553632 0)
(1.5165 -0.210869 0)
(1.37509 -0.0457175 0)
(1.40983 -0.0350487 0)
(1.42971 -0.0174704 0)
(1.45333 0.0061515 0)
(1.50085 0.0112697 0)
(1.54157 0.00343992 0)
(1.57906 -0.00150353 0)
(1.61138 0.00250988 0)
(1.64044 -0.000122157 0)
(1.67048 -0.00362257 0)
(1.69592 -0.00413448 0)
(1.71927 -0.00285404 0)
(1.74193 0.00416085 0)
(1.76284 0.0152735 0)
(1.78253 0.0213081 0)
(1.80474 0.020859 0)
(1.82831 0.0144794 0)
(1.85293 0.00543165 0)
(1.87528 3.55592e-07 0)
(1.89719 -0.00287737 0)
(1.91841 -0.00295598 0)
(1.93765 0.00151518 0)
(1.95197 0.0118561 0)
(1.96269 0.022797 0)
(1.97993 0.0264985 0)
(2.00131 0.0270048 0)
(2.02407 0.0262642 0)
(2.04928 0.0215149 0)
(2.07512 0.0136636 0)
(2.09734 0.00683148 0)
(2.11713 0.000565927 0)
(2.1308 -0.00410879 0)
(2.13246 0.00358408 0)
(2.13084 0.0189353 0)
(2.14237 0.0269269 0)
(2.16092 0.0292707 0)
(2.18088 0.0310899 0)
(2.20459 0.0295051 0)
(2.23047 0.0225733 0)
(2.2519 0.0155928 0)
(2.2704 0.0102743 0)
(2.28207 0.00548166 0)
(2.27732 0.012201 0)
(2.27353 0.0243252 0)
(2.2875 0.0289869 0)
(2.30475 0.0306422 0)
(2.3234 0.0327794 0)
(2.34654 0.0323875 0)
(2.37026 0.0275558 0)
(2.39022 0.0226271 0)
(2.40868 0.0178669 0)
(2.42271 0.0126021 0)
(2.42345 0.0155066 0)
(2.41433 0.0280405 0)
(2.4277 0.0346523 0)
(1.68018 1.03427 0)
(2.06089 0.858087 0)
(2.31657 0.654849 0)
(2.49067 0.427922 0)
(2.63368 0.126449 0)
(2.68228 -0.107991 0)
(2.7148 -0.188399 0)
(2.75284 -0.175185 0)
(2.7537 -0.283841 0)
(2.7225 -0.350168 0)
(2.72533 -0.387894 0)
(2.7307 -0.478756 0)
(2.71962 -0.476577 0)
(2.66657 -0.384127 0)
(2.61498 -0.271795 0)
(2.59939 -0.191608 0)
(2.5871 -0.135134 0)
(2.56054 -0.072807 0)
(2.5335 -0.0512991 0)
(2.51463 -0.0626427 0)
(2.509 -0.0585791 0)
(2.51029 -0.0270644 0)
(2.50585 -0.00664553 0)
(2.49187 0.00120073 0)
(2.48542 0.00520915 0)
(2.48717 0.00447849 0)
(2.49094 -0.00933099 0)
(2.49772 -0.033801 0)
(2.50296 -0.0431768 0)
(2.50449 -0.0406063 0)
(2.50545 -0.0312405 0)
(2.50307 -0.0117847 0)
(2.50023 0.00315374 0)
(2.50057 0.00863924 0)
(2.49487 -0.00254544 0)
(2.45942 -0.0648038 0)
(2.31903 -0.272077 0)
(2.05147 -0.549239 0)
(1.91447 -0.667391 0)
(1.95135 -0.688533 0)
(1.90589 -0.556326 0)
(1.70309 -0.258057 0)
(1.54658 -0.110179 0)
(1.5179 -0.0450783 0)
(1.5316 0.00122905 0)
(1.56305 -0.0130972 0)
(1.59186 -0.0358286 0)
(1.62307 -0.0347464 0)
(1.6529 -0.0223596 0)
(1.67751 -0.00547036 0)
(1.70347 0.00306675 0)
(1.72806 0.00384292 0)
(1.7513 0.0042555 0)
(1.77449 0.00565322 0)
(1.79698 0.010318 0)
(1.81617 0.0190757 0)
(1.82973 0.0274211 0)
(1.84414 0.0287589 0)
(1.86515 0.0248001 0)
(1.88869 0.0187354 0)
(1.91302 0.0130807 0)
(1.9363 0.00934337 0)
(1.95837 0.00806501 0)
(1.97779 0.0110148 0)
(1.9903 0.0211466 0)
(1.99972 0.0318057 0)
(2.0175 0.0346985 0)
(2.03887 0.0348262 0)
(2.06033 0.0348796 0)
(2.08086 0.0331701 0)
(2.09991 0.0275619 0)
(2.11766 0.0192715 0)
(2.13451 0.0127369 0)
(2.14891 0.0120939 0)
(2.15704 0.0222315 0)
(2.16114 0.037378 0)
(2.17471 0.0438387 0)
(2.19446 0.0446672 0)
(2.21444 0.0444143 0)
(2.23385 0.0423448 0)
(2.25213 0.0366767 0)
(2.26806 0.0284501 0)
(2.28055 0.0217666 0)
(2.28964 0.0211758 0)
(2.29429 0.031485 0)
(2.30127 0.0432675 0)
(2.31815 0.0471145 0)
(2.33674 0.0481784 0)
(2.35695 0.0482873 0)
(2.37539 0.0472596 0)
(2.39288 0.0442188 0)
(2.4076 0.039085 0)
(2.4184 0.0336716 0)
(2.42652 0.0303405 0)
(2.43067 0.0405766 0)
(2.44105 0.0532623 0)
(1.61065 0.975534 0)
(1.90674 0.857089 0)
(2.14366 0.698091 0)
(2.32175 0.551251 0)
(2.4421 0.392542 0)
(2.56955 0.158837 0)
(2.64688 -0.0424887 0)
(2.6923 -0.163198 0)
(2.74676 -0.249061 0)
(2.75834 -0.35221 0)
(2.75619 -0.423509 0)
(2.75651 -0.465829 0)
(2.76183 -0.480842 0)
(2.76143 -0.461843 0)
(2.74694 -0.418928 0)
(2.71642 -0.357433 0)
(2.69623 -0.318864 0)
(2.65241 -0.230623 0)
(2.6121 -0.172683 0)
(2.59615 -0.166237 0)
(2.59816 -0.145287 0)
(2.59445 -0.102664 0)
(2.58574 -0.0714982 0)
(2.5708 -0.0365634 0)
(2.55864 -0.0172117 0)
(2.54358 -0.00872187 0)
(2.53473 -0.00599704 0)
(2.53088 -9.21634e-05 0)
(2.54529 0.00608151 0)
(2.56026 0.00214459 0)
(2.56383 -0.00296057 0)
(2.5637 -0.00893868 0)
(2.55162 -0.00346422 0)
(2.54188 -0.0120698 0)
(2.48929 -0.0735753 0)
(2.32601 -0.299457 0)
(2.13344 -0.505112 0)
(1.99687 -0.660561 0)
(1.96259 -0.684346 0)
(1.98683 -0.688572 0)
(2.00249 -0.661963 0)
(1.9825 -0.56138 0)
(1.82313 -0.322796 0)
(1.69661 -0.135667 0)
(1.63421 -0.0298998 0)
(1.63897 -0.014245 0)
(1.65399 0.00227579 0)
(1.67979 0.00312724 0)
(1.70509 0.00219171 0)
(1.73042 0.0100113 0)
(1.74913 0.0107664 0)
(1.77057 0.010813 0)
(1.79228 0.0117246 0)
(1.81612 0.0153556 0)
(1.83862 0.0179412 0)
(1.85915 0.0214165 0)
(1.87198 0.0273699 0)
(1.87822 0.0317698 0)
(1.894 0.0304512 0)
(1.91639 0.0284161 0)
(1.93928 0.0266831 0)
(1.96225 0.0258123 0)
(1.98425 0.0259961 0)
(2.00557 0.026778 0)
(2.02288 0.0305028 0)
(2.03089 0.0393914 0)
(2.03805 0.0452477 0)
(2.05538 0.0432247 0)
(2.07483 0.0394484 0)
(2.09416 0.0354401 0)
(2.11272 0.0315564 0)
(2.13054 0.0288889 0)
(2.14885 0.0282665 0)
(2.16705 0.0291871 0)
(2.18302 0.0334856 0)
(2.19212 0.0455756 0)
(2.19482 0.0597724 0)
(2.20566 0.0629797 0)
(2.22379 0.0600427 0)
(2.24232 0.0553819 0)
(2.25941 0.0487099 0)
(2.27375 0.0410684 0)
(2.28768 0.035854 0)
(2.30263 0.0348129 0)
(2.3168 0.0391567 0)
(2.32636 0.0509448 0)
(2.33302 0.0627142 0)
(2.34846 0.0653559 0)
(2.36652 0.0641494 0)
(2.38393 0.0613339 0)
(2.39997 0.0580759 0)
(2.41311 0.054275 0)
(2.4232 0.0504631 0)
(2.43455 0.0494637 0)
(2.44655 0.0550194 0)
(2.46278 0.0632584 0)
(1.5749 0.93654 0)
(1.79828 0.86601 0)
(2.01477 0.740425 0)
(2.19326 0.586038 0)
(2.3186 0.471359 0)
(2.39414 0.376286 0)
(2.50876 0.208652 0)
(2.59617 0.0322694 0)
(2.64154 -0.0860887 0)
(2.6861 -0.13038 0)
(2.68055 -0.142469 0)
(2.67074 -0.219148 0)
(2.68411 -0.310324 0)
(2.70794 -0.345788 0)
(2.74397 -0.375771 0)
(2.75817 -0.411597 0)
(2.75696 -0.412041 0)
(2.72279 -0.371154 0)
(2.69521 -0.327991 0)
(2.66732 -0.294401 0)
(2.653 -0.250589 0)
(2.65055 -0.19147 0)
(2.65264 -0.158447 0)
(2.65062 -0.127235 0)
(2.61643 -0.10067 0)
(2.58991 -0.0722528 0)
(2.57022 -0.0308737 0)
(2.56278 -0.0165234 0)
(2.56944 -0.0107508 0)
(2.5844 -0.00677737 0)
(2.5873 -0.00547492 0)
(2.58719 0.00201792 0)
(2.57372 -0.0133068 0)
(2.53369 -0.0644341 0)
(2.29515 -0.332409 0)
(2.08843 -0.567667 0)
(2.02737 -0.605178 0)
(2.01826 -0.663837 0)
(2.01354 -0.676815 0)
(2.02648 -0.675531 0)
(2.03939 -0.665111 0)
(2.05547 -0.642522 0)
(2.03657 -0.577007 0)
(1.94288 -0.408261 0)
(1.8079 -0.204198 0)
(1.75465 -0.0896849 0)
(1.71813 -0.0212813 0)
(1.72283 0.00957163 0)
(1.74344 0.0126489 0)
(1.77012 0.0216244 0)
(1.78434 0.0232301 0)
(1.80728 0.0216403 0)
(1.83174 0.0195758 0)
(1.85711 0.0198425 0)
(1.87832 0.0218572 0)
(1.89787 0.0254811 0)
(1.91291 0.0325403 0)
(1.91841 0.0412747 0)
(1.92638 0.0452801 0)
(1.94643 0.0436658 0)
(1.96787 0.0410456 0)
(1.98953 0.0379354 0)
(2.01081 0.0357421 0)
(2.03145 0.0352827 0)
(2.05087 0.0358667 0)
(2.06418 0.0411232 0)
(2.06845 0.0529553 0)
(2.07246 0.0608074 0)
(2.0874 0.058774 0)
(2.10586 0.0543611 0)
(2.12498 0.0497738 0)
(2.14516 0.0467562 0)
(2.16537 0.0456309 0)
(2.18495 0.0457884 0)
(2.20391 0.0473398 0)
(2.2195 0.0528537 0)
(2.2256 0.0658063 0)
(2.22386 0.0792395 0)
(2.23108 0.0798251 0)
(2.24668 0.073243 0)
(2.2634 0.065128 0)
(2.28081 0.0588882 0)
(2.29888 0.0568082 0)
(2.31624 0.056689 0)
(2.33357 0.0575488 0)
(2.34895 0.0615699 0)
(2.35764 0.0716688 0)
(2.36218 0.0809942 0)
(2.37293 0.081353 0)
(2.38799 0.0772268 0)
(2.40281 0.0717424 0)
(2.41608 0.0670145 0)
(2.42992 0.0658926 0)
(2.44575 0.0679532 0)
(2.46074 0.0741507 0)
(2.48203 0.079922 0)
(1.54765 0.892934 0)
(1.7349 0.843554 0)
(1.90056 0.775121 0)
(2.07758 0.655378 0)
(2.22066 0.509535 0)