/*--------------------------------*- C++ -*----------------------------------*\
  =========                 |
  \\      /  F ield         | OpenFOAM: The Open Source CFD Toolbox
   \\    /   O peration     | Website:  https://openfoam.org
    \\  /    A nd           | Version:  7
     \\/     M anipulation  |
\*---------------------------------------------------------------------------*/
FoamFile
{
    version     2.0;
    format      ascii;
    class       volScalarField;
    location    "1.4";
    object      p;
}
// * * * * * * * * * * * * * * * * * * * * * * * * * * * * * * * * * * * * * //

dimensions      [1 -1 -2 0 0 0 0];

internalField   nonuniform List<scalar> 
258048
(
1
1
1
1
1
1
1
1
1
1
1
1
1
1
1
1
1
1
1
1
1
1
1
1
1
1
1
1
1
1
1
1
1
1
1
1
1
1
1
1
1
1
1
1
1
1
1
1
1
1
1
1
1
1
1
1
1
1
1
1
1
1
1
1
1
1
1
1
1
1
1
1
1
1
1
1
1
1
1
1
1
1
1
1
1
1
1
1
1
1
1
1
1
1
1
1
1
1
1
1
1
1
1
1.11021
6.96723
10.4645
10.5537
10.6002
10.6441
10.6863
10.7282
10.7666
10.8025
10.8367
10.8719
10.909
10.9467
10.9817
11.0065
11.0242
11.0388
11.0567
11.0778
11.1032
11.131
11.1584
11.1794
11.1972
11.2186
11.2443
11.2728
11.301
11.325
11.3453
11.3621
11.3841
11.41
11.4403
11.4724
11.5036
11.5323
11.5573
11.5795
11.6026
11.6268
11.6502
11.6706
11.6887
11.7046
11.7249
11.749
11.7796
11.8097
11.8313
11.8414
11.8379
11.8231
11.8129
11.811
11.8155
11.8278
11.8468
11.8649
11.8809
11.8972
11.9156
11.9365
11.9583
11.9789
11.9963
12.0101
12.0208
12.0291
12.0364
12.0454
12.0571
12.0712
12.0852
12.0938
12.0963
12.0997
12.1067
12.1226
12.1475
12.1709
12.1846
12.1859
12.1784
12.1659
12.1514
12.1422
12.1343
1
1
1
1
1
1
1
1
1
1
1
1
1
1
1
1
1
1
1
1
1
1
1
1
1
1
1
1
1
1
1
1
1
1
1
1
1
1
1
1
1
1
1
1
1
1
1
1
1
1
1
1
1
1
1
1
1
1
1
1
1
1
1
1
1
1
1
1
1
1
1
1
1
1
1
1
1
1
1
1
1
1
1
1
1
1
1
1
1
1
1
1
1
1
1
1
1
1
1
1
1
1
1
1.10758
6.95649
10.4637
10.5543
10.5968
10.6403
10.6821
10.7245
10.765
10.8034
10.8393
10.8748
10.9105
10.9462
10.9798
11.0043
11.0228
11.0395
11.0587
11.0797
11.1034
11.1279
11.1531
11.1746
11.1951
11.2198
11.2478
11.2769
11.3032
11.3252
11.3443
11.361
11.3837
11.4105
11.4417
11.4738
11.5042
11.5313
11.5545
11.5754
11.598
11.6223
11.6466
11.668
11.6873
11.704
11.7241
11.7475
11.7771
11.807
11.8295
11.8411
11.8396
11.8254
11.8141
11.8094
11.8115
11.8225
11.8416
11.8615
11.88
11.8981
11.9169
11.9366
11.9564
11.9755
11.993
12.0082
12.0211
12.0318
12.0406
12.0495
12.059
12.0689
12.0797
12.0881
12.0937
12.1014
12.112
12.1276
12.149
12.1671
12.1766
12.1779
12.1727
12.1638
12.1532
12.1464
12.1397
1
1
1
1
1
1
1
1
1
1
1
1
1
1
1
1
1
1
1
1
1
1
1
1
1
1
1
1
1
1
1
1
1
1
1
1
1
1
1
1
1
1
1
1
1
1
1
1
1
1
1
1
1
1
1
1
1
1
1
1
1
1
1
1
1
1
1
1
1
1
1
1
1
1
1
1
1
1
1
1
1
1
1
1
1
1
1
1
1
1
1
1
1
1
1
1
1
1
1
1
1
1
1
1.08373
6.91887
10.4717
10.5581
10.5963
10.6393
10.6795
10.7213
10.763
10.8028
10.8397
10.8755
10.9104
10.9447
10.9764
11.0004
11.0196
11.0391
11.06
11.0806
11.1021
11.1232
11.1462
11.1684
11.1918
11.2202
11.2513
11.2816
11.3064
11.3263
11.3437
11.3598
11.3828
11.4105
11.4427
11.4753
11.5051
11.5304
11.551
11.5699
11.5918
11.6162
11.6416
11.6646
11.6856
11.7036
11.7231
11.7452
11.7729
11.8021
11.8258
11.8401
11.8421
11.8298
11.8173
11.8085
11.8062
11.8142
11.8329
11.8556
11.8785
11.8998
11.919
11.9367
11.9534
11.9702
11.9875
12.0047
12.0207
12.0344
12.0455
12.0544
12.0616
12.0676
12.0741
12.0811
12.0896
12.1017
12.1165
12.1328
12.1498
12.1627
12.1683
12.1687
12.1654
12.1605
12.1548
12.1517
12.147
1
1
1
1
1
1
1
1
1
1
1
1
1
1
1
1
1
1
1
1
1
1
1
1
1
1
1
1
1
1
1
1
1
1
1
1
1
1
1
1
1
1
1
1
1
1
1
1
1
1
1
1
1
1
1
1
1
1
1
1
1
1
1
1
1
1
1
1
1
1
1
1
1
1
1
1
1
1
1
1
1
1
1
1
1
1
1
1
1
1
1
1
1
1
1
1
1
1
1
1
1
1
1
1.05123
6.85819
10.4844
10.5629
10.5942
10.6357
10.6756
10.7184
10.7618
10.8027
10.8394
10.874
10.9077
10.9413
10.973
10.9983
11.0188
11.0401
11.0611
11.0794
11.0975
11.1158
11.138
11.1624
11.1896
11.2217
11.2552
11.2859
11.309
11.3271
11.3431
11.359
11.3819
11.4099
11.4424
11.475
11.5042
11.5277
11.546
11.5631
11.5843
11.6089
11.6356
11.661
11.684
11.7038
11.7228
11.743
11.7679
11.7954
11.82
11.8377
11.8438
11.8342
11.8207
11.8077
11.801
11.8051
11.8222
11.8472
11.8747
11.8997
11.9201
11.9362
11.9502
11.9651
11.9823
12.0014
12.0203
12.0372
12.05
12.0583
12.0628
12.065
12.0679
12.0744
12.0865
12.103
12.1212
12.1374
12.1495
12.1559
12.1572
12.1566
12.1559
12.1562
12.1565
12.1577
12.1558
1
1
1
1
1
1
1
1
1
1
1
1
1
1
1
1
1
1
1
1
1
1
1
1
1
1
1
1
1
1
1
1
1
1
1
1
1
1
1
1
1
1
1
1
1
1
1
1
1
1
1
1
1
1
1
1
1
1
1
1
1
1
1
1
1
1
1
1
1
1
1
1
1
1
1
1
1
1
1
1
1
1
1
1
1
1
1
1
1
1
1
1
1
1
1
1
1
1
1
1
1
1
1
1.01958
6.77862
10.4856
10.5648
10.5909
10.6307
10.671
10.7154
10.7605
10.802
10.8377
10.8707
10.9036
10.9375
10.9701
10.998
11.0206
11.0426
11.0618
11.0765
11.0908
11.1074
11.1309
11.1587
11.1892
11.2235
11.2574
11.2875
11.3094
11.3268
11.3423
11.3583
11.3807
11.4082
11.4406
11.4731
11.5019
11.524
11.5407
11.5564
11.577
11.6021
11.6303
11.658
11.683
11.7047
11.7231
11.7412
11.763
11.7881
11.8129
11.8337
11.8434
11.8372
11.8239
11.8087
11.7981
11.7978
11.8117
11.8372
11.8685
11.8972
11.9191
11.9347
11.9474
11.9613
11.9784
11.9985
12.0195
12.0381
12.0517
12.0592
12.0615
12.0615
12.0631
12.0709
12.0858
12.1056
12.1247
12.1391
12.1467
12.1474
12.1453
12.1444
12.1466
12.1518
12.1577
12.1628
12.164
1
1
1
1
1
1
1
1
1
1
1
1
1
1
1
1
1
1
1
1
1
1
1
1
1
1
1
1
1
1
1
1
1
1
1
1
1
1
1
1
1
1
1
1
1
1
1
1
1
1
1
1
1
1
1
1
1
1
1
1
1
1
1
1
1
1
1
1
1
1
1
1
1
1
1
1
1
1
1
1
1
1
1
1
1
1
1
1
1
1
1
1
1
1
1
1
1
1
1
1
1
1
1
1.00039
6.67595
10.4789
10.5646
10.5878
10.6261
10.6669
10.7127
10.7588
10.8001
10.8347
10.8666
10.899
10.9334
10.9671
10.9976
11.022
11.0434
11.06
11.0715
11.0835
11.1002
11.1265
11.1576
11.1906
11.2251
11.2574
11.2863
11.3072
11.3247
11.3405
11.3573
11.379
11.4053
11.437
11.4694
11.498
11.5196
11.5356
11.5507
11.571
11.5966
11.6262
11.6558
11.6826
11.7055
11.7231
11.7396
11.7588
11.7815
11.8057
11.8278
11.8401
11.8376
11.826
11.8108
11.7983
11.7944
11.8034
11.8272
11.8603
11.8919
11.9159
11.9323
11.9454
11.9594
11.9768
11.9967
12.0179
12.0362
12.0489
12.0554
12.057
12.0573
12.0608
12.0712
12.0884
12.1089
12.127
12.1379
12.1406
12.1374
12.1337
12.1336
12.1384
12.1475
12.1577
12.1662
12.1703
1
1
1
1
1
1
1
1
1
1
1
1
1
1
1
1
1
1
1
1
1
1
1
1
1
1
1
1
1
1
1
1
1
1
1
1
1
1
1
1
1
1
1
1
1
1
1
1
1
1
1
1
1
1
1
1
1
1
1
1
1
1
1
1
1
1
1
1
1
1
1
1
1
1
1
1
1
1
1
1
1
1
1
1
1
1
1
1
1
1
1
1
1
1
1
1
1
1
1
1
1
1
1
1
6.5389
10.4698
10.5628
10.5855
10.6226
10.6635
10.7093
10.7545
10.7949
10.8294
10.8624
10.896
10.931
10.965
10.9965
11.0211
11.041
11.0565
11.0673
11.0788
11.0963
11.1248
11.1582
11.192
11.2257
11.2559
11.283
11.3031
11.3206
11.3367
11.3545
11.3756
11.4006
11.432
11.4647
11.4936
11.5153
11.5311
11.5465
11.5669
11.5932
11.624
11.6548
11.6825
11.7054
11.7221
11.7373
11.7548
11.7759
11.7989
11.8205
11.834
11.8355
11.8265
11.8127
11.7997
11.7935
11.7984
11.8182
11.8517
11.8854
11.9116
11.93
11.9446
11.9596
11.9764
11.9947
12.0142
12.0307
12.0416
12.0474
12.0501
12.0534
12.061
12.0751
12.0937
12.1123
12.1267
12.133
12.1316
12.1267
12.1234
12.1248
12.1318
12.1432
12.1562
12.1666
12.174
1
1
1
1
1
1
1
1
1
1
1
1
1
1
1
1
1
1
1
1
1
1
1
1
1
1
1
1
1
1
1
1
1
1
1
1
1
1
1
1
1
1
1
1
1
1
1
1
1
1
1
1
1
1
1
1
1
1
1
1
1
1
1
1
1
1
1
1
1
1
1
1
1
1
1
1
1
1
1
1
1
1
1
1
1
1
1
1
1
1
1
1
1
1
1
1
1
1
1
1
1
1
1
1
6.37575
10.4576
10.56
10.584
10.6209
10.6616
10.7057
10.7482
10.7872
10.8232
10.8592
10.8953
10.9308
10.9636
10.9934
11.0161
11.0348
11.0513
11.0637
11.0766
11.0945
11.124
11.1586
11.1919
11.2253
11.2538
11.2792
11.2989
11.316
11.3316
11.3499
11.3703
11.3947
11.4266
11.4601
11.4897
11.5116
11.5276
11.5434
11.5644
11.5915
11.6231
11.6543
11.6821
11.7038
11.7192
11.7335
11.7503
11.7706
11.7927
11.8132
11.8272
11.8315
11.8256
11.8144
11.8015
11.794
11.7958
11.8113
11.8442
11.8798
11.9081
11.9283
11.9442
11.9595
11.975
11.9909
12.0079
12.0221
12.0307
12.0361
12.0416
12.0499
12.063
12.0814
12.1002
12.1156
12.1243
12.1253
12.1213
12.1165
12.1147
12.1176
12.1258
12.1383
12.1525
12.1637
12.1744
1
1
1
1
1
1
1
1
1
1
1
1
1
1
1
1
1
1
1
1
1
1
1
1
1
1
1
1
1
1
1
1
1
1
1
1
1
1
1
1
1
1
1
1
1
1
1
1
1
1
1
1
1
1
1
1
1
1
1
1
1
1
1
1
1
1
1
1
1
1
1
1
1
1
1
1
1
1
1
1
1
1
1
1
1
1
1
1
1
1
1
1
1
1
1
1
1
1
1
1
1
1
1
1
6.19096
10.4412
10.5566
10.5821
10.62
10.6608
10.7021
10.7406
10.7781
10.8166
10.8568
10.896
10.9316
10.9623
10.989
11.0085
11.0264
11.0448
11.0597
11.075
11.0932
11.1223
11.1567
11.1894
11.2227
11.2512
11.2759
11.2956
11.3119
11.3265
11.3445
11.3641
11.3886
11.4212
11.4558
11.486
11.5083
11.5244
11.5407
11.5623
11.5902
11.6223
11.6536
11.681
11.7011
11.715
11.7282
11.7448
11.7652
11.7871
11.8068
11.8211
11.8269
11.8232
11.815
11.8031
11.7945
11.7945
11.8069
11.8387
11.8761
11.9066
11.9273
11.9429
11.9571
11.9711
11.9851
11.9998
12.0118
12.0188
12.024
12.032
12.0456
12.0648
12.087
12.106
12.1179
12.1212
12.1178
12.1121
12.1081
12.1076
12.1113
12.1196
12.1322
12.1469
12.1587
12.1715
1
1
1
1
1
1
1
1
1
1
1
1
1
1
1
1
1
1
1
1
1
1
1
1
1
1
1
1
1
1
1
1
1
1
1
1
1
1
1
1
1
1
1
1
1
1
1
1
1
1
1
1
1
1
1
1
1
1
1
1
1
1
1
1
1
1
1
1
1
1
1
1
1
1
1
1
1
1
1
1
1
1
1
1
1
1
1
1
1
1
1
1
1
1
1
1
1
1
1
1
1
1
1
1
5.98776
10.4206
10.5511
10.5788
10.6196
10.6606
10.6982
10.7325
10.7692
10.8106
10.8549
10.8964
10.9315
10.9594
10.9826
10.999
11.0174
11.0379
11.0555
11.0732
11.0914
11.1184
11.1514
11.1835
11.2173
11.2471
11.2729
11.2932
11.3092
11.3228
11.3399
11.3587
11.3832
11.4163
11.4515
11.482
11.5046
11.5209
11.5375
11.5596
11.588
11.6206
11.6518
11.6788
11.6976
11.7102
11.7222
11.7384
11.7594
11.782
11.8018
11.8164
11.8228
11.8196
11.813
11.8022
11.7941
11.7938
11.8054
11.8363
11.8747
11.9064
11.9272
11.9412
11.9532
11.9652
11.9777
11.9909
12.0014
12.0075
12.0125
12.022
12.0398
12.0645
12.0897
12.1089
12.1183
12.118
12.1119
12.1059
12.1025
12.1021
12.105
12.1122
12.1243
12.1392
12.152
12.1666
1
1
1
1
1
1
1
1
1
1
1
1
1
1
1
1
1
1
1
1
1
1
1
1
1
1
1
1
1
1
1
1
1
1
1
1
1
1
1
1
1
1
1
1
1
1
1
1
1
1
1
1
1
1
1
1
1
1
1
1
1
1
1
1
1
1
1
1
1
1
1
1
1
1
1
1
1
1
1
1
1
1
1
1
1
1
1
1
1
1
1
1
1
1
1
1
1
1
1
1
1
1
1
1
5.7674
10.3888
10.5456
10.5776
10.6194
10.6586
10.6915
10.7233
10.7618
10.8066
10.8532
10.8953
10.9289
10.9541
10.9744
10.9893
11.0097
11.0318
11.0516
11.071
11.089
11.1138
11.1442
11.1754
11.2092
11.2405
11.2682
11.2902
11.3072
11.3205
11.3374
11.3558
11.3797
11.4122
11.4471
11.4775
11.5002
11.5165
11.533
11.5552
11.5838
11.6168
11.648
11.6749
11.6937
11.7056
11.7164
11.732
11.7532
11.7769
11.7976
11.8128
11.8191
11.8155
11.8082
11.798
11.7914
11.7926
11.8054
11.8359
11.8741
11.9057
11.926
11.9384
11.948
11.9581
11.9702
11.9826
11.9922
11.9975
12.0021
12.0123
12.0323
12.0606
12.0884
12.1082
12.1166
12.115
12.1085
12.103
12.0998
12.098
12.0985
12.1034
12.1145
12.1297
12.1441
12.1597
1
1
1
1
1
1
1
1
1
1
1
1
1
1
1
1
1
1
1
1
1
1
1
1
1
1
1
1
1
1
1
1
1
1
1
1
1
1
1
1
1
1
1
1
1
1
1
1
1
1
1
1
1
1
1
1
1
1
1
1
1
1
1
1
1
1
1
1
1
1
1
1
1
1
1
1
1
1
1
1
1
1
1
1
1
1
1
1
1
1
1
1
1
1
1
1
1
1
1
1
1
1
1
1
5.53121
10.3463
10.543
10.5763
10.6168
10.6522
10.6813
10.7143
10.7577
10.8059
10.8529
10.8929
10.9234
10.9457
10.9639
10.9793
11.0027
11.0262
11.0481
11.0688
11.0871
11.1105
11.1376
11.1674
11.2002
11.2317
11.2609
11.2847
11.304
11.3188
11.3368
11.3554
11.3784
11.4093
11.4429
11.4725
11.4951
11.5113
11.5273
11.5489
11.5769
11.61
11.6413
11.6694
11.6896
11.702
11.7118
11.7262
11.7469
11.7713
11.7933
11.8093
11.8155
11.811
11.8023
11.792
11.7865
11.7902
11.8052
11.8349
11.8717
11.902
11.9216
11.9332
11.9418
11.952
11.9643
11.9765
11.9852
11.9892
11.9926
12.0024
12.0233
12.0528
12.0823
12.1035
12.1124
12.1121
12.1071
12.1028
12.0992
12.095
12.0919
12.0938
12.1033
12.1187
12.1349
12.1507
1
1
1
1
1
1
1
1
1
1
1
1
1
1
1
1
1
1
1
1
1
1
1
1
1
1
1
1
1
1
1
1
1
1
1
1
1
1
1
1
1
1
1
1
1
1
1
1
1
1
1
1
1
1
1
1
1
1
1
1
1
1
1
1
1
1
1
1
1
1
1
1
1
1
1
1
1
1
1
1
1
1
1
1
1
1
1
1
1
1
1
1
1
1
1
1
1
1
1
1
1
1
1
1
5.28194
10.2934
10.5435
10.5731
10.61
10.6406
10.6686
10.7074
10.7575
10.8083
10.8538
10.8897
10.9157
10.9351
10.9518
10.9698
10.9959
11.0209
11.0447
11.0664
11.0858
11.1087
11.1332
11.1613
11.1922
11.2224
11.2515
11.2763
11.2985
11.3163
11.3367
11.356
11.3785
11.4075
11.4388
11.4671
11.4896
11.5059
11.5213
11.5411
11.5676
11.6002
11.6318
11.662
11.6847
11.6988
11.7083
11.7215
11.7409
11.7651
11.788
11.8047
11.8107
11.8058
11.7959
11.7854
11.7805
11.7863
11.804
11.8327
11.8662
11.8941
11.9129
11.9252
11.9355
11.9479
11.9617
11.974
11.9807
11.982
11.9832
11.9918
12.0126
12.0419
12.0724
12.0949
12.1057
12.1084
12.1064
12.1037
12.0995
12.0926
12.0861
12.0847
12.0924
12.1071
12.1244
12.1393
1
1
1
1
1
1
1
1
1
1
1
1
1
1
1
1
1
1
1
1
1
1
1
1
1
1
1
1
1
1
1
1
1
1
1
1
1
1
1
1
1
1
1
1
1
1
1
1
1
1
1
1
1
1
1
1
1
1
1
1
1
1
1
1
1
1
1
1
1
1
1
1
1
1
1
1
1
1
1
1
1
1
1
1
1
1
1
1
1
1
1
1
1
1
1
1
1
1
1
1
1
1
1
1
5.01522
10.2375
10.5446
10.5681
10.5991
10.6246
10.6555
10.7036
10.7598
10.8118
10.8542
10.8853
10.9068
10.9239
10.9397
10.961
10.9888
11.0157
11.0419
11.0644
11.0853
11.1074
11.1307
11.1571
11.1861
11.2141
11.2419
11.2665
11.291
11.3121
11.3355
11.3562
11.3787
11.406
11.4347
11.4619
11.4845
11.5011
11.516
11.5334
11.5573
11.5882
11.6199
11.6524
11.6781
11.6948
11.7052
11.7174
11.7353
11.7587
11.7813
11.7981
11.8042
11.7995
11.7896
11.7791
11.7746
11.7814
11.8001
11.8267
11.856
11.881
11.8998
11.9149
11.9299
11.9467
11.9628
11.9745
11.9781
11.9754
11.9734
11.9804
12.0009
12.0295
12.0599
12.0834
12.0967
12.103
12.1046
12.1038
12.0993
12.0904
12.0814
12.0774
12.0827
12.0956
12.1123
12.1251
1
1
1
1
1
1
1
1
1
1
1
1
1
1
1
1
1
1
1
1
1
1
1
1
1
1
1
1
1
1
1
1
1
1
1
1
1
1
1
1
1
1
1
1
1
1
1
1
1
1
1
1
1
1
1
1
1
1
1
1
1
1
1
1
1
1
1
1
1
1
1
1
1
1
1
1
1
1
1
1
1
1
1
1
1
1
1
1
1
1
1
1
1
1
1
1
1
1
1
1
1
1
1
1
4.72359
10.1859
10.543
10.5571
10.582
10.6066
10.6452
10.7021
10.7614
10.8125
10.8517
10.8794
10.8977
10.9131
10.9294
10.9539
10.9827
11.0107
11.0381
11.0621
11.084
11.1049
11.128
11.1533
11.1808
11.2068
11.2331
11.2566
11.2819
11.306
11.3317
11.3541
11.3769
11.4026
11.4298
11.4564
11.4798
11.4975
11.5121
11.5273
11.5481
11.576
11.6071
11.6407
11.6694
11.6891
11.7012
11.7131
11.7298
11.7518
11.7732
11.7894
11.7957
11.7919
11.783
11.7731
11.7692
11.7762
11.7935
11.8166
11.841
11.8633
11.8833
11.9035
11.9256
11.9482
11.9666
11.977
11.9763
11.969
11.9636
11.9689
11.9887
12.0166
12.0462
12.0701
12.0856
12.095
12.1001
12.1013
12.0973
12.088
12.078
12.0724
12.0753
12.0849
12.0988
12.1085
1
1
1
1
1
1
1
1
1
1
1
1
1
1
1
1
1
1
1
1
1
1
1
1
1
1
1
1
1
1
1
1
1
1
1
1
1
1
1
1
1
1
1
1
1
1
1
1
1
1
1
1
1
1
1
1
1
1
1
1
1
1
1
1
1
1
1
1
1
1
1
1
1
1
1
1
1
1
1
1
1
1
1
1
1
1
1
1
1
1
1
1
1
1
1
1
1
1
1
1
1
1
1
1
4.41326
10.132
10.534
10.5401
10.5646
10.5916
10.6391
10.701
10.76
10.8096
10.8469
10.8719
10.8878
10.9029
10.922
10.9486
10.977
11.0066
11.0346
11.0597
11.0804
11.1003
11.1235
11.1484
11.1752
11.2003
11.2253
11.248
11.2726
11.2985
11.3254
11.3486
11.3719
11.3964
11.4226
11.4498
11.4747
11.4945
11.5096
11.5233
11.5409
11.5652
11.5944
11.6273
11.6581
11.6806
11.6949
11.7075
11.7237
11.7441
11.7638
11.7791
11.7858
11.7831
11.7761
11.7675
11.7644
11.7708
11.7856
11.8037
11.8228
11.8426
11.8646
11.8915
11.922
11.9506
11.9712
11.9798
11.9745
11.9627
11.9542
11.9578
11.9767
12.004
12.0324
12.0563
12.0731
12.0844
12.0921
12.0954
12.0928
12.0848
12.0756
12.0694
12.0697
12.0752
12.0843
12.0903
1
1
1
1
1
1
1
1
1
1
1
1
1
1
1
1
1
1
1
1
1
1
1
1
1
1
1
1
1
1
1
1
1
1
1
1
1
1
1
1
1
1
1
1
1
1
1
1
1
1
1
1
1
1
1
1
1
1
1
1
1
1
1
1
1
1
1
1
1
1
1
1
1
1
1
1
1
1
1
1
1
1
1
1
1
1
1
1
1
1
1
1
1
1
1
1
1
1
1
1
1
1
1
1
4.09465
10.0563
10.5222
10.5241
10.5483
10.5816
10.6375
10.6994
10.7558
10.8028
10.837
10.8594
10.8755
10.8929
10.9176
10.945
10.9741
11.004
11.0322
11.0571
11.0757
11.0946
11.1174
11.1421
11.1687
11.1939
11.2186
11.2408
11.2641
11.2904
11.3174
11.3403
11.3637
11.3871
11.4128
11.4409
11.4681
11.4907
11.5074
11.5208
11.536
11.5569
11.5832
11.6142
11.6459
11.6703
11.6866
11.7004
11.7167
11.7359
11.7536
11.7679
11.7752
11.7734
11.7684
11.7616
11.759
11.7644
11.7764
11.7893
11.8033
11.8209
11.8454
11.879
11.9176
11.9516
11.9738
11.9808
11.9719
11.9564
11.9457
11.9479
11.9656
11.992
12.0191
12.0424
12.0597
12.072
12.0811
12.0859
12.0854
12.0801
12.073
12.0673
12.0654
12.0663
12.0697
12.072
1
1
1
1
1
1
1
1
1
1
1
1
1
1
1
1
1
1
1
1
1
1
1
1
1
1
1
1
1
1
1
1
1
1
1
1
1
1
1
1
1
1
1
1
1
1
1
1
1
1
1
1
1
1
1
1
1
1
1
1
1
1
1
1
1
1
1
1
1
1
1
1
1
1
1
1
1
1
1
1
1
1
1
1
1
1
1
1
1
1
1
1
1
1
1
1
1
1
1
1
1
1
1
1
3.77526
9.94914
10.5109
10.5071
10.5337
10.5762
10.6378
10.6982
10.7508
10.7935
10.8228
10.8433
10.861
10.8844
10.9147
10.9433
10.9736
11.0031
11.0309
11.0534
11.0703
11.0878
11.1099
11.1345
11.1613
11.1876
11.2129
11.2348
11.2566
11.2823
11.3084
11.3307
11.3536
11.3754
11.4005
11.4288
11.4584
11.4841
11.5037
11.5183
11.5323
11.5505
11.5738
11.6025
11.6339
11.6591
11.6768
11.6919
11.7083
11.7268
11.7429
11.7566
11.7645
11.7635
11.7603
11.7549
11.7528
11.7571
11.7666
11.7752
11.7853
11.8012
11.8274
11.866
11.9106
11.9486
11.972
11.9784
11.9676
11.9501
11.9382
11.9396
11.9558
11.9808
12.0065
12.0288
12.046
12.0586
12.0678
12.0732
12.0746
12.0728
12.0691
12.0647
12.0612
12.0582
12.0558
12.0551
1
1
1
1
1
1
1
1
1
1
1
1
1
1
1
1
1
1
1
1
1
1
1
1
1
1
1
1
1
1
1
1
1
1
1
1
1
1
1
1
1
1
1
1
1
1
1
1
1
1
1
1
1
1
1
1
1
1
1
1
1
1
1
1
1
1
1
1
1
1
1
1
1
1
1
1
1
1
1
1
1
1
1
1
1
1
1
1
1
1
1
1
1
1
1
1
1
1
1
1
1
1
1
1
3.45782
9.80699
10.4978
10.4925
10.5221
10.5745
10.6394
10.6983
10.7469
10.783
10.8077
10.8266
10.846
10.8767
10.9096
10.943
10.9745
11.0043
11.0305
11.0495
11.0648
11.0805
11.1011
11.1254
11.1527
11.181
11.2074
11.2295
11.2499
11.2746
11.2993
11.3214
11.344
11.3641
11.3868
11.4139
11.4439
11.4726
11.4962
11.5135
11.5279
11.5449
11.5659
11.5927
11.6233
11.6485
11.667
11.6827
11.699
11.7171
11.7322
11.7456
11.7536
11.7531
11.7511
11.7468
11.7452
11.749
11.7569
11.7629
11.7706
11.7852
11.8121
11.8528
11.9
11.9402
11.9647
11.9715
11.9609
11.9435
11.932
11.9332
11.9475
11.9703
11.9943
12.0156
12.0323
12.0448
12.0533
12.0581
12.0605
12.0621
12.0625
12.0605
12.0563
12.0505
12.0435
12.0409
1
1
1
1
1
1
1
1
1
1
1
1
1
1
1
1
1
1
1
1
1
1
1
1
1
1
1
1
1
1
1
1
1
1
1
1
1
1
1
1
1
1
1
1
1
1
1
1
1
1
1
1
1
1
1
1
1
1
1
1
1
1
1
1
1
1
1
1
1
1
1
1
1
1
1
1
1
1
1
1
1
1
1
1
1
1
1
1
1
1
1
1
1
1
1
1
1
1
1
1
1
1
1
1
3.13683
9.62718
10.4902
10.4814
10.5192
10.5751
10.6386
10.6945
10.7391
10.7701
10.7928
10.811
10.837
10.8691
10.906
10.9422
10.975
11.0053
11.0294
11.0469
11.0607
11.0743
11.0925
11.1156
11.1434
11.1734
11.2009
11.2234
11.2427
11.2663
11.2897
11.3124
11.3354
11.3554
11.3754
11.3993
11.4271
11.4564
11.4832
11.5044
11.5209
11.5383
11.5585
11.5843
11.614
11.6391
11.6581
11.6738
11.6895
11.707
11.7213
11.7345
11.7426
11.7429
11.7415
11.738
11.7369
11.7407
11.748
11.7532
11.7599
11.7736
11.8
11.8402
11.8865
11.9262
11.9509
11.959
11.9509
11.9361
11.9266
11.9284
11.9408
11.9606
11.9824
12.0028
12.019
12.0308
12.0383
12.0418
12.0443
12.0483
12.0524
12.0536
12.0501
12.0431
12.0327
12.0297
1
1
1
1
1
1
1
1
1
1
1
1
1
1
1
1
1
1
1
1
1
1
1
1
1
1
1
1
1
1
1
1
1
1
1
1
1
1
1
1
1
1
1
1
1
1
1
1
1
1
1
1
1
1
1
1
1
1
1
1
1
1
1
1
1
1
1
1
1
1
1
1
1
1
1
1
1
1
1
1
1
1
1
1
1
1
1
1
1
1
1
1
1
1
1
1
1
1
1
1
1
1
1
1
2.80423
9.40225
10.488
10.4796
10.5254
10.5783
10.6357
10.6862
10.7263
10.7559
10.7798
10.8013
10.8317
10.8629
10.8996
10.937
10.9712
11.0028
11.0271
11.0447
11.057
11.0683
11.0836
11.1052
11.1334
11.1645
11.1929
11.216
11.2351
11.2581
11.2806
11.3051
11.3294
11.3501
11.3686
11.389
11.4127
11.4396
11.4672
11.4913
11.5101
11.5291
11.5497
11.5755
11.6053
11.6306
11.6503
11.666
11.6805
11.6968
11.7103
11.7228
11.7313
11.7327
11.7319
11.7286
11.7281
11.7319
11.7393
11.7451
11.7521
11.7657
11.7911
11.8286
11.8712
11.9078
11.9314
11.9408
11.937
11.9273
11.9215
11.9247
11.9355
11.9521
11.9712
11.99
12.0057
12.0169
12.023
12.0249
12.0266
12.0318
12.039
12.0439
12.0424
12.0355
12.0232
12.0203
1
1
1
1
1
1
1
1
1
1
1
1
1
1
1
1
1
1
1
1
1
1
1
1
1
1
1
1
1
1
1
1
1
1
1
1
1
1
1
1
1
1
1
1
1
1
1
1
1
1
1
1
1
1
1
1
1
1
1
1
1
1
1
1
1
1
1
1
1
1
1
1
1
1
1
1
1
1
1
1
1
1
1
1
1
1
1
1
1
1
1
1
1
1
1
1
1
1
1
1
1
1
1
1
2.46951
9.14381
10.4899
10.4914
10.5374
10.5803
10.6267
10.6706
10.7092
10.7413
10.7678
10.7968
10.8304
10.8592
10.8917
10.9272
10.9622
10.9939
11.0205
11.0396
11.0522
11.0628
11.0758
11.0955
11.1231
11.154
11.1825
11.2061
11.2259
11.2485
11.2718
11.299
11.3247
11.3469
11.3648
11.3825
11.4023
11.4258
11.4522
11.4771
11.4971
11.5168
11.5378
11.5644
11.5955
11.6223
11.6433
11.6591
11.6722
11.6866
11.6989
11.7101
11.7192
11.7224
11.7224
11.7191
11.7192
11.7228
11.7303
11.7378
11.7462
11.7605
11.7849
11.8189
11.8559
11.8872
11.9077
11.9178
11.9188
11.916
11.916
11.9214
11.9312
11.9447
11.9607
11.9772
11.9919
12.0025
12.0075
12.0075
12.0081
12.0139
12.0235
12.0318
12.033
12.0274
12.014
12.0112
1
1
1
1
1
1
1
1
1
1
1
1
1
1
1
1
1
1
1
1
1
1
1
1
1
1
1
1
1
1
1
1
1
1
1
1
1
1
1
1
1
1
1
1
1
1
1
1
1
1
1
1
1
1
1
1
1
1
1
1
1
1
1
1
1
1
1
1
1
1
1
1
1
1
1
1
1
1
1
1
1
1
1
1
1
1
1
1
1
1
1
1
1
1
1
1
1
1
1
1
1
1
1
1
2.14658
8.84686
10.4891
10.491
10.5367
10.576
10.6164
10.6537
10.6901
10.7259
10.7599
10.7965
10.8307
10.859
10.8875
10.9181
10.9506
10.9812
11.0101
11.0314
11.0455
11.0566
11.0686
11.0864
11.112
11.1416
11.1702
11.1935
11.2149
11.2377
11.2629
11.292
11.3195
11.3433
11.3619
11.3782
11.3956
11.4169
11.4414
11.4657
11.4851
11.5035
11.5227
11.5493
11.5823
11.612
11.6355
11.6523
11.6642
11.6762
11.6871
11.6969
11.7066
11.7117
11.7129
11.7097
11.7103
11.713
11.7201
11.7299
11.7404
11.7561
11.7803
11.8108
11.8414
11.8662
11.8821
11.8914
11.8967
11.9017
11.9092
11.9184
11.9275
11.9382
11.9508
11.9645
11.9776
11.9873
11.9911
11.9898
11.9896
11.9958
12.0073
12.0186
12.0223
12.0178
12.0038
12
1
1
1
1
1
1
1
1
1
1
1
1
1
1
1
1
1
1
1
1
1
1
1
1
1
1
1
1
1
1
1
1
1
1
1
1
1
1
1
1
1
1
1
1
1
1
1
1
1
1
1
1
1
1
1
1
1
1
1
1
1
1
1
1
1
1
1
1
1
1
1
1
1
1
1
1
1
1
1
1
1
1
1
1
1
1
1
1
1
1
1
1
1
1
1
1
1
1
1
1
1
1
1
1
1.85791
8.50561
10.4886
10.4909
10.5344
10.5712
10.6045
10.6378
10.6735
10.7117
10.7517
10.7931
10.8285
10.8566
10.8823
10.9096
10.9391
10.9679
10.9976
11.0213
11.0378
11.0506
11.0628
11.0785
11.101
11.1284
11.156
11.1789
11.2015
11.2251
11.2528
11.2827
11.3116
11.3368
11.3569
11.3733
11.3905
11.411
11.4346
11.4579
11.4759
11.4915
11.5073
11.532
11.5656
11.5988
11.6259
11.6445
11.6562
11.666
11.6754
11.6841
11.6937
11.7002
11.7028
11.6998
11.7002
11.7021
11.7084
11.7195
11.7331
11.7514
11.776
11.8036
11.8282
11.8459
11.8566
11.8638
11.8722
11.8847
11.9005
11.9144
11.9239
11.9317
11.9407
11.9512
11.962
11.9703
11.9735
11.9717
11.9713
11.9783
11.9917
12.0052
12.0106
12.0063
11.9915
11.9852
1
1
1
1
1
1
1
1
1
1
1
1
1
1
1
1
1
1
1
1
1
1
1
1
1
1
1
1
1
1
1
1
1
1
1
1
1
1
1
1
1
1
1
1
1
1
1
1
1
1
1
1
1
1
1
1
1
1
1
1
1
1
1
1
1
1
1
1
1
1
1
1
1
1
1
1
1
1
1
1
1
1
1
1
1
1
1
1
1
1
1
1
1
1
1
1
1
1
1
1
1
1
1
1
1.59775
8.10765
10.4784
10.4871
10.5267
10.5634
10.5983
10.6304
10.6641
10.702
10.7441
10.7869
10.8222
10.8499
10.8745
10.9
10.9267
10.9546
10.9842
11.0095
11.028
11.043
11.0561
11.0706
11.0904
11.1153
11.1413
11.1636
11.1865
11.2119
11.2418
11.2712
11.3004
11.3263
11.3474
11.3652
11.3842
11.4061
11.4301
11.4529
11.4696
11.4821
11.4933
11.5143
11.5462
11.5817
11.6125
11.6341
11.6466
11.6555
11.6638
11.6719
11.6815
11.6879
11.6914
11.689
11.6878
11.6892
11.6945
11.7062
11.7233
11.7452
11.771
11.7966
11.8163
11.8275
11.8327
11.8373
11.8478
11.8664
11.8894
11.908
11.9187
11.9242
11.9293
11.9365
11.945
11.952
11.9548
11.9533
11.9539
11.9625
11.9776
11.9924
11.998
11.9928
11.9766
11.9665
1
1
1
1
1
1
1
1
1
1
1
1
1
1
1
1
1
1
1
1
1
1
1
1
1
1
1
1
1
1
1
1
1
1
1
1
1
1
1
1
1
1
1
1
1
1
1
1
1
1
1
1
1
1
1
1
1
1
1
1
1
1
1
1
1
1
1
1
1
1
1
1
1
1
1
1
1
1
1
1
1
1
1
1
1
1
1
1
1
1
1
1
1
1
1
1
1
1
1
1
1
1
1
1
1.37323
7.65689
10.4561
10.4719
10.513
10.5537
10.5943
10.6303
10.665
10.7008
10.7399
10.7775
10.8096
10.8374
10.8633
10.8894
10.9153
10.9438
10.9739
11
11.0194
11.0352
11.0492
11.0631
11.0809
11.1039
11.1279
11.1492
11.1711
11.198
11.2289
11.2582
11.2863
11.3122
11.3334
11.353
11.3747
11.3993
11.425
11.4477
11.4638
11.4738
11.4813
11.4986
11.5267
11.5617
11.5948
11.6196
11.6343
11.6441
11.6524
11.6605
11.6702
11.6756
11.6786
11.6766
11.6726
11.6733
11.678
11.6902
11.7106
11.7366
11.7643
11.7887
11.8045
11.8109
11.8113
11.8132
11.825
11.8481
11.8761
11.8986
11.9106
11.9144
11.9164
11.9205
11.9267
11.9326
11.9355
11.9353
11.938
11.9485
11.965
11.9797
11.984
11.9766
11.9585
11.9438
1
1
1
1
1
1
1
1
1
1
1
1
1
1
1
1
1
1
1
1
1
1
1
1
1
1
1
1
1
1
1
1
1
1
1
1
1
1
1
1
1
1
1
1
1
1
1
1
1
1
1
1
1
1
1
1
1
1
1
1
1
1
1
1
1
1
1
1
1
1
1
1
1
1
1
1
1
1
1
1
1
1
1
1
1
1
1
1
1
1
1
1
1
1
1
1
1
1
1
1
1
1
1
1
1.15963
7.1376
10.4367
10.4612
10.493
10.5366
10.5848
10.6283
10.6668
10.7009
10.7358
10.7689
10.7977
10.8246
10.8511
10.8783
10.9052
10.9355
10.9659
10.9916
11.011
11.0265
11.0406
11.0545
11.0724
11.0939
11.1169
11.1375
11.1586
11.1845
11.214
11.2438
11.2719
11.2973
11.3181
11.3387
11.3624
11.3899
11.4173
11.4404
11.4561
11.4651
11.4709
11.4858
11.5095
11.5412
11.5736
11.6004
11.6181
11.6305
11.6402
11.6498
11.6599
11.6642
11.6645
11.6613
11.6551
11.6541
11.6587
11.6718
11.6949
11.7253
11.7553
11.779
11.7923
11.7956
11.7929
11.7932
11.8056
11.831
11.8613
11.8857
11.8983
11.901
11.9009
11.9026
11.907
11.9123
11.916
11.918
11.9235
11.9363
11.9534
11.9668
11.9685
11.9579
11.9375
11.9183
1
1
1
1
1
1
1
1
1
1
1
1
1
1
1
1
1
1
1
1
1
1
1
1
1
1
1
1
1
1
1
1
1
1
1
1
1
1
1
1
1
1
1
1
1
1
1
1
1
1
1
1
1
1
1
1
1
1
1
1
1
1
1
1
1
1
1
1
1
1
1
1
1
1
1
1
1
1
1
1
1
1
1
1
1
1
1
1
1
1
1
1
1
1
1
1
1
1
1
1
1
1
1
1
1.00786
6.57192
10.406
10.4461
10.4716
10.5138
10.5658
10.6139
10.6576
10.6966
10.7316
10.7612
10.7851
10.8096
10.8363
10.8657
10.8958
10.9287
10.9587
10.9839
11.0028
11.0175
11.0318
11.0468
11.0652
11.0861
11.1084
11.1282
11.1491
11.1717
11.1988
11.2281
11.2567
11.2822
11.3037
11.3256
11.3504
11.3786
11.4061
11.4289
11.4449
11.4543
11.461
11.4755
11.4956
11.5223
11.5512
11.5778
11.5979
11.6137
11.6268
11.6393
11.6497
11.653
11.6501
11.6439
11.6353
11.632
11.6368
11.6514
11.6772
11.7113
11.7434
11.7667
11.7787
11.7808
11.7771
11.7775
11.7903
11.8159
11.8454
11.869
11.8808
11.8831
11.8821
11.8827
11.8864
11.8918
11.8968
11.9015
11.9103
11.9252
11.942
11.9529
11.9511
11.9371
11.9145
11.8918
1
1
1
1
1
1
1
1
1
1
1
1
1
1
1
1
1
1
1
1
1
1
1
1
1
1
1
1
1
1
1
1
1
1
1
1
1
1
1
1
1
1
1
1
1
1
1
1
1
1
1
1
1
1
1
1
1
1
1
1
1
1
1
1
1
1
1
1
1
1
1
1
1
1
1
1
1
1
1
1
1
1
1
1
1
1
1
1
1
1
1
1
1
1
1
1
1
1
1
1
1
1
1
1
1.00006
5.90044
10.3288
10.4353
10.4632
10.5006
10.5502
10.6013
10.6496
10.6916
10.7262
10.7537
10.7754
10.7983
10.8255
10.8565
10.8893
10.9237
10.9525
10.9763
10.9944
11.0088
11.0226
11.0385
11.0576
11.079
11.1012
11.121
11.1418
11.1613
11.1848
11.2114
11.2394
11.2658
11.2901
11.3148
11.3411
11.368
11.3925
11.4123
11.4278
11.4389
11.4496
11.4662
11.4847
11.5061
11.5296
11.5535
11.5746
11.5941
11.6118
11.628
11.6394
11.6419
11.6356
11.6255
11.6141
11.6081
11.6131
11.6297
11.6581
11.6948
11.7284
11.7515
11.763
11.7653
11.7633
11.7656
11.7792
11.8028
11.8287
11.8486
11.8582
11.8604
11.86
11.8612
11.8657
11.8718
11.8781
11.8854
11.8973
11.9139
11.9297
11.9374
11.9317
11.9146
11.8902
11.8656
1
1
1
1
1
1
1
1
1
1
1
1
1
1
1
1
1
1
1
1
1
1
1
1
1
1
1
1
1
1
1
1
1
1
1
1
1
1
1
1
1
1
1
1
1
1
1
1
1
1
1
1
1
1
1
1
1
1
1
1
1
1
1
1
1
1
1
1
1
1
1
1
1
1
1
1
1
1
1
1
1
1
1
1
1
1
1
1
1
1
1
1
1
1
1
1
1
1
1
1
1
1
1
1
1
5.19631
10.2405
10.4222
10.4491
10.4885
10.5376
10.589
10.637
10.6786
10.712
10.74
10.7637
10.7877
10.816
10.8486
10.8833
10.9184
10.9471
10.9708
10.9875
11.0001
11.0132
11.0293
11.0487
11.0709
11.0936
11.1151
11.1361
11.1541
11.1728
11.1952
11.2209
11.2479
11.2759
11.3048
11.3333
11.3589
11.3791
11.3939
11.407
11.4197
11.436
11.4567
11.4756
11.4926
11.5102
11.5295
11.5498
11.5725
11.5949
11.6149
11.6279
11.63
11.6209
11.6068
11.5923
11.5839
11.5891
11.6078
11.6385
11.6768
11.7108
11.7332
11.7444
11.7482
11.7502
11.7565
11.7711
11.7916
11.8111
11.8248
11.8313
11.8336
11.8353
11.839
11.8454
11.8525
11.8598
11.8691
11.8833
11.9008
11.9152
11.9195
11.9104
11.8909
11.8657
11.841
1
1
1
1
1
1
1
1
1
1
1
1
1
1
1
1
1
1
1
1
1
1
1
1
1
1
1
1
1
1
1
1
1
1
1
1
1
1
1
1
1
1
1
1
1
1
1
1
1
1
1
1
1
1
1
1
1
1
1
1
1
1
1
1
1
1
1
1
1
1
1
1
1
1
1
1
1
1
1
1
1
1
1
1
1
1
1
1
1
1
1
1
1
1
1
1
1
1
1
1
1
1
1
1
1
4.48723
10.0999
10.4198
10.4427
10.481
10.5269
10.5774
10.6252
10.6672
10.6999
10.7277
10.7514
10.7776
10.8077
10.8412
10.8765
10.9117
10.9399
10.9635
10.9801
10.992
11.0041
11.0189
11.0375
11.0602
11.0837
11.1074
11.1294
11.1474
11.1636
11.1814
11.2031
11.2294
11.2602
11.2935
11.325
11.35
11.3663
11.3761
11.3856
11.3987
11.4204
11.4457
11.466
11.4801
11.4922
11.5069
11.5254
11.5501
11.5767
11.6004
11.6155
11.6173
11.606
11.5886
11.571
11.5605
11.5656
11.5861
11.6185
11.6574
11.6908
11.7119
11.7229
11.7293
11.7363
11.7482
11.7646
11.781
11.7929
11.799
11.8016
11.8039
11.8088
11.8164
11.8253
11.8333
11.8411
11.8516
11.8671
11.8848
11.8974
11.8991
11.8876
11.867
11.8421
11.819
1
1
1
1
1
1
1
1
1
1
1
1
1
1
1
1
1
1
1
1
1
1
1
1
1
1
1
1
1
1
1
1
1
1
1
1
1
1
1
1
1
1
1
1
1
1
1
1
1
1
1
1
1
1
1
1
1
1
1
1
1
1
1
1
1
1
1
1
1
1
1
1
1
1
1
1
1
1
1
1
1
1
1
1
1
1
1
1
1
1
1
1
1
1
1
1
1
1
1
1
1
1
1
1
1
3.80544
9.88971
10.4142
10.4365
10.4787
10.5206
10.5684
10.6151
10.6563
10.6882
10.716
10.7417
10.7688
10.7982
10.8314
10.8663
10.9007
10.9291
10.9533
10.9713
10.983
10.9945
11.0071
11.0238
11.0462
11.0708
11.0969
11.1206
11.14
11.1562
11.1708
11.1878
11.2112
11.2424
11.2787
11.3134
11.3395
11.3542
11.3609
11.367
11.3793
11.4039
11.432
11.4539
11.467
11.4753
11.4861
11.5024
11.528
11.5579
11.5848
11.6017
11.6033
11.5905
11.5709
11.551
11.5389
11.5437
11.5653
11.5989
11.6374
11.6688
11.6881
11.699
11.7082
11.721
11.7389
11.7572
11.7696
11.7737
11.7721
11.7704
11.7732
11.7818
11.7937
11.8051
11.8138
11.8216
11.8324
11.8482
11.8652
11.8762
11.876
11.8635
11.8431
11.8195
11.7992
1
1
1
1
1
1
1
1
1
1
1
1
1
1
1
1
1
1
1
1
1
1
1
1
1
1
1
1
1
1
1
1
1
1
1
1
1
1
1
1
1
1
1
1
1
1
1
1
1
1
1
1
1
1
1
1
1
1
1
1
1
1
1
1
1
1
1
1
1
1
1
1
1
1
1
1
1
1
1
1
1
1
1
1
1
1
1
1
1
1
1
1
1
1
1
1
1
1
1
1
1
1
1
1
1
3.16703
9.60153
10.4247
10.4338
10.4744
10.5128
10.5595
10.6055
10.6462
10.6789
10.7073
10.7345
10.7612
10.7878
10.8178
10.85
10.8838
10.9143
10.9405
10.9608
10.9734
10.9846
10.9944
11.0078
11.0273
11.0509
11.0787
11.1055