/*--------------------------------*- C++ -*----------------------------------*\
  =========                 |
  \\      /  F ield         | OpenFOAM: The Open Source CFD Toolbox
   \\    /   O peration     | Website:  https://openfoam.org
    \\  /    A nd           | Version:  7
     \\/     M anipulation  |
\*---------------------------------------------------------------------------*/
FoamFile
{
    version     2.0;
    format      ascii;
    class       volScalarField;
    location    "1.4";
    object      rho;
}
// * * * * * * * * * * * * * * * * * * * * * * * * * * * * * * * * * * * * * //

dimensions      [1 -3 0 0 0 0 0];

internalField   nonuniform List<scalar> 
258048
(
1.40001
1.40001
1.40001
1.40001
1.40001
1.40001
1.40001
1.40001
1.40001
1.40001
1.40001
1.40001
1.40001
1.40001
1.40001
1.40001
1.40001
1.40001
1.40001
1.40001
1.40001
1.40001
1.40001
1.40001
1.40001
1.40001
1.40001
1.40001
1.40001
1.40001
1.40001
1.40001
1.40001
1.40001
1.40001
1.40001
1.40001
1.40001
1.40001
1.40001
1.40001
1.40001
1.40001
1.40001
1.40001
1.40001
1.40001
1.40001
1.40001
1.40001
1.40001
1.40001
1.40001
1.40001
1.40001
1.40001
1.40001
1.40001
1.40001
1.40001
1.40001
1.40001
1.40001
1.40001
1.40001
1.40001
1.40001
1.40001
1.40001
1.40001
1.40001
1.40001
1.40001
1.40001
1.40001
1.40001
1.40001
1.40001
1.40001
1.40001
1.40001
1.40001
1.40001
1.40001
1.40001
1.40001
1.40001
1.40001
1.40001
1.40001
1.40001
1.40001
1.40001
1.40001
1.40001
1.40001
1.40001
1.40001
1.40001
1.40001
1.40001
1.40001
1.40001
1.46176
4.18104
5.45029
5.44485
5.45126
5.46483
5.48092
5.49813
5.51505
5.53191
5.5485
5.56477
5.57925
5.58936
5.59357
5.59156
5.58761
5.58685
5.59319
5.60526
5.62157
5.64181
5.66395
5.68237
5.69514
5.70535
5.71371
5.717
5.71487
5.70953
5.7047
5.7032
5.70838
5.71944
5.73448
5.75142
5.7693
5.7869
5.80209
5.81429
5.82463
5.83125
5.83243
5.82951
5.82606
5.82536
5.83111
5.84247
5.85791
5.87378
5.88553
5.89061
5.88798
5.87882
5.86998
5.86542
5.86526
5.86909
5.87589
5.88219
5.887
5.89094
5.8949
5.89959
5.90494
5.91034
5.91493
5.91812
5.91981
5.92022
5.91994
5.91981
5.92021
5.92098
5.92142
5.91988
5.91608
5.91243
5.91064
5.91196
5.91457
5.91309
5.89983
5.86576
5.80714
5.73208
5.662
5.619
5.60374
1.40001
1.40001
1.40001
1.40001
1.40001
1.40001
1.40001
1.40001
1.40001
1.40001
1.40001
1.40001
1.40001
1.40001
1.40001
1.40001
1.40001
1.40001
1.40001
1.40001
1.40001
1.40001
1.40001
1.40001
1.40001
1.40001
1.40001
1.40001
1.40001
1.40001
1.40001
1.40001
1.40001
1.40001
1.40001
1.40001
1.40001
1.40001
1.40001
1.40001
1.40001
1.40001
1.40001
1.40001
1.40001
1.40001
1.40001
1.40001
1.40001
1.40001
1.40001
1.40001
1.40001
1.40001
1.40001
1.40001
1.40001
1.40001
1.40001
1.40001
1.40001
1.40001
1.40001
1.40001
1.40001
1.40001
1.40001
1.40001
1.40001
1.40001
1.40001
1.40001
1.40001
1.40001
1.40001
1.40001
1.40001
1.40001
1.40001
1.40001
1.40001
1.40001
1.40001
1.40001
1.40001
1.40001
1.40001
1.40001
1.40001
1.40001
1.40001
1.40001
1.40001
1.40001
1.40001
1.40001
1.40001
1.40001
1.40001
1.40001
1.40001
1.40001
1.40001
1.45981
4.1765
5.45002
5.4451
5.45004
5.4632
5.47913
5.49661
5.51433
5.53209
5.54929
5.56566
5.57966
5.58923
5.59299
5.59088
5.5872
5.5872
5.5941
5.60609
5.62175
5.64086
5.66217
5.68066
5.69437
5.70586
5.71496
5.71838
5.71562
5.70952
5.70421
5.70274
5.7082
5.71968
5.73503
5.75198
5.76959
5.78663
5.80115
5.81286
5.82302
5.8297
5.83116
5.82859
5.82554
5.82515
5.83084
5.84199
5.8571
5.87288
5.88494
5.89055
5.88853
5.87966
5.87037
5.86478
5.86381
5.86721
5.87404
5.88099
5.88669
5.89127
5.89534
5.89959
5.90426
5.90916
5.91374
5.91744
5.91993
5.92115
5.92137
5.92124
5.92086
5.92018
5.91949
5.91789
5.91517
5.9131
5.91247
5.91359
5.91507
5.91185
5.89715
5.86306
5.80521
5.7314
5.66258
5.62035
5.60544
1.40001
1.40001
1.40001
1.40001
1.40001
1.40001
1.40001
1.40001
1.40001
1.40001
1.40001
1.40001
1.40001
1.40001
1.40001
1.40001
1.40001
1.40001
1.40001
1.40001
1.40001
1.40001
1.40001
1.40001
1.40001
1.40001
1.40001
1.40001
1.40001
1.40001
1.40001
1.40001
1.40001
1.40001
1.40001
1.40001
1.40001
1.40001
1.40001
1.40001
1.40001
1.40001
1.40001
1.40001
1.40001
1.40001
1.40001
1.40001
1.40001
1.40001
1.40001
1.40001
1.40001
1.40001
1.40001
1.40001
1.40001
1.40001
1.40001
1.40001
1.40001
1.40001
1.40001
1.40001
1.40001
1.40001
1.40001
1.40001
1.40001
1.40001
1.40001
1.40001
1.40001
1.40001
1.40001
1.40001
1.40001
1.40001
1.40001
1.40001
1.40001
1.40001
1.40001
1.40001
1.40001
1.40001
1.40001
1.40001
1.40001
1.40001
1.40001
1.40001
1.40001
1.40001
1.40001
1.40001
1.40001
1.40001
1.40001
1.40001
1.40001
1.40001
1.40001
1.44549
4.16395
5.45438
5.44705
5.44981
5.46211
5.47751
5.49496
5.51322
5.53154
5.54911
5.56556
5.5794
5.58871
5.59215
5.59
5.58648
5.58737
5.59502
5.60675
5.62159
5.63953
5.66005
5.67862
5.69321
5.70614
5.7161
5.7198
5.71657
5.7097
5.70377
5.70213
5.70783
5.71976
5.73549
5.75261
5.77008
5.78648
5.8001
5.81108
5.8209
5.82759
5.82944
5.82745
5.825
5.82505
5.8306
5.84128
5.85574
5.87125
5.88371
5.89023
5.88938
5.88123
5.8714
5.86428
5.86189
5.86434
5.87099
5.87894
5.8862
5.89185
5.89607
5.89959
5.90317
5.90728
5.91179
5.91617
5.91973
5.92207
5.92303
5.92289
5.92175
5.91974
5.91753
5.91539
5.91374
5.9133
5.914
5.91519
5.91537
5.9105
5.89435
5.85989
5.80272
5.73027
5.663
5.62193
5.60766
1.40001
1.40001
1.40001
1.40001
1.40001
1.40001
1.40001
1.40001
1.40001
1.40001
1.40001
1.40001
1.40001
1.40001
1.40001
1.40001
1.40001
1.40001
1.40001
1.40001
1.40001
1.40001
1.40001
1.40001
1.40001
1.40001
1.40001
1.40001
1.40001
1.40001
1.40001
1.40001
1.40001
1.40001
1.40001
1.40001
1.40001
1.40001
1.40001
1.40001
1.40001
1.40001
1.40001
1.40001
1.40001
1.40001
1.40001
1.40001
1.40001
1.40001
1.40001
1.40001
1.40001
1.40001
1.40001
1.40001
1.40001
1.40001
1.40001
1.40001
1.40001
1.40001
1.40001
1.40001
1.40001
1.40001
1.40001
1.40001
1.40001
1.40001
1.40001
1.40001
1.40001
1.40001
1.40001
1.40001
1.40001
1.40001
1.40001
1.40001
1.40001
1.40001
1.40001
1.40001
1.40001
1.40001
1.40001
1.40001
1.40001
1.40001
1.40001
1.40001
1.40001
1.40001
1.40001
1.40001
1.40001
1.40001
1.40001
1.40001
1.40001
1.40001
1.40001
1.42728
4.14585
5.46132
5.44934
5.44882
5.4597
5.47499
5.49302
5.51203
5.53082
5.54838
5.56444
5.57799
5.58748
5.59148
5.59005
5.58704
5.58844
5.59611
5.60686
5.62047
5.63743
5.65763
5.67677
5.69252
5.70682
5.7173
5.72089
5.71712
5.70961
5.70321
5.70157
5.70745
5.7196
5.73547
5.75266
5.77002
5.78578
5.79858
5.80889
5.81835
5.8251
5.82745
5.8263
5.82457
5.82519
5.83062
5.84064
5.85413
5.86904
5.8818
5.8895
5.88999
5.88276
5.87251
5.86388
5.86002
5.86122
5.86722
5.87597
5.88487
5.89185
5.8964
5.89938
5.90204
5.90548
5.90991
5.91492
5.91957
5.923
5.92453
5.92412
5.92206
5.91876
5.91532
5.91301
5.91262
5.91378
5.91561
5.91672
5.91529
5.90818
5.89044
5.85563
5.79938
5.72861
5.66326
5.62351
5.61012
1.40001
1.40001
1.40001
1.40001
1.40001
1.40001
1.40001
1.40001
1.40001
1.40001
1.40001
1.40001
1.40001
1.40001
1.40001
1.40001
1.40001
1.40001
1.40001
1.40001
1.40001
1.40001
1.40001
1.40001
1.40001
1.40001
1.40001
1.40001
1.40001
1.40001
1.40001
1.40001
1.40001
1.40001
1.40001
1.40001
1.40001
1.40001
1.40001
1.40001
1.40001
1.40001
1.40001
1.40001
1.40001
1.40001
1.40001
1.40001
1.40001
1.40001
1.40001
1.40001
1.40001
1.40001
1.40001
1.40001
1.40001
1.40001
1.40001
1.40001
1.40001
1.40001
1.40001
1.40001
1.40001
1.40001
1.40001
1.40001
1.40001
1.40001
1.40001
1.40001
1.40001
1.40001
1.40001
1.40001
1.40001
1.40001
1.40001
1.40001
1.40001
1.40001
1.40001
1.40001
1.40001
1.40001
1.40001
1.40001
1.40001
1.40001
1.40001
1.40001
1.40001
1.40001
1.40001
1.40001
1.40001
1.40001
1.40001
1.40001
1.40001
1.40001
1.40001
1.41002
4.12061
5.46387
5.45004
5.44685
5.45673
5.47188
5.49045
5.51018
5.52933
5.54661
5.56223
5.57582
5.58609
5.5911
5.59098
5.58897
5.59052
5.59729
5.60653
5.61881
5.6352
5.65577
5.67582
5.69253
5.70755
5.7178
5.72095
5.71673
5.70892
5.70236
5.70097
5.70698
5.7191
5.73492
5.75217
5.76949
5.7848
5.797
5.80682
5.81598
5.82282
5.82569
5.8254
5.82442
5.82562
5.83089
5.84016
5.85258
5.8666
5.87939
5.88824
5.88994
5.88371
5.87352
5.86413
5.85901
5.85867
5.86354
5.87244
5.88268
5.89099
5.89605
5.89881
5.90104
5.90413
5.90851
5.91384
5.91921
5.92328
5.92502
5.92429
5.92148
5.91739
5.91359
5.91175
5.9123
5.91457
5.91673
5.91722
5.91428
5.90515
5.8862
5.85126
5.79593
5.72671
5.66312
5.62457
5.61219
1.40001
1.40001
1.40001
1.40001
1.40001
1.40001
1.40001
1.40001
1.40001
1.40001
1.40001
1.40001
1.40001
1.40001
1.40001
1.40001
1.40001
1.40001
1.40001
1.40001
1.40001
1.40001
1.40001
1.40001
1.40001
1.40001
1.40001
1.40001
1.40001
1.40001
1.40001
1.40001
1.40001
1.40001
1.40001
1.40001
1.40001
1.40001
1.40001
1.40001
1.40001
1.40001
1.40001
1.40001
1.40001
1.40001
1.40001
1.40001
1.40001
1.40001
1.40001
1.40001
1.40001
1.40001
1.40001
1.40001
1.40001
1.40001
1.40001
1.40001
1.40001
1.40001
1.40001
1.40001
1.40001
1.40001
1.40001
1.40001
1.40001
1.40001
1.40001
1.40001
1.40001
1.40001
1.40001
1.40001
1.40001
1.40001
1.40001
1.40001
1.40001
1.40001
1.40001
1.40001
1.40001
1.40001
1.40001
1.40001
1.40001
1.40001
1.40001
1.40001
1.40001
1.40001
1.40001
1.40001
1.40001
1.40001
1.40001
1.40001
1.40001
1.40001
1.40001
1.40025
4.0835
5.463
5.44982
5.44499
5.4538
5.46852
5.48735
5.50748
5.52673
5.54378
5.5593
5.57327
5.58448
5.59074
5.5922
5.59109
5.59234
5.59784
5.60574
5.61724
5.63365
5.655
5.67597
5.69323
5.70814
5.71751
5.71993
5.71523
5.7074
5.70106
5.70021
5.70634
5.71817
5.73373
5.75105
5.76847
5.78363
5.79556
5.80515
5.81409
5.82101
5.82438
5.82484
5.82443
5.82599
5.83109
5.83973
5.85128
5.86446
5.87693
5.88629
5.88886
5.88378
5.87419
5.86487
5.85902
5.85736
5.8606
5.86888
5.87982
5.88912
5.8949
5.89796
5.90034
5.90345
5.90788
5.91312
5.91857
5.92254
5.92398
5.92288
5.91975
5.91576
5.91268
5.91179
5.91308
5.91556
5.91735
5.9167
5.91204
5.90152
5.88202
5.84727
5.79273
5.72468
5.6624
5.62482
5.61338
1.40001
1.40001
1.40001
1.40001
1.40001
1.40001
1.40001
1.40001
1.40001
1.40001
1.40001
1.40001
1.40001
1.40001
1.40001
1.40001
1.40001
1.40001
1.40001
1.40001
1.40001
1.40001
1.40001
1.40001
1.40001
1.40001
1.40001
1.40001
1.40001
1.40001
1.40001
1.40001
1.40001
1.40001
1.40001
1.40001
1.40001
1.40001
1.40001
1.40001
1.40001
1.40001
1.40001
1.40001
1.40001
1.40001
1.40001
1.40001
1.40001
1.40001
1.40001
1.40001
1.40001
1.40001
1.40001
1.40001
1.40001
1.40001
1.40001
1.40001
1.40001
1.40001
1.40001
1.40001
1.40001
1.40001
1.40001
1.40001
1.40001
1.40001
1.40001
1.40001
1.40001
1.40001
1.40001
1.40001
1.40001
1.40001
1.40001
1.40001
1.40001
1.40001
1.40001
1.40001
1.40001
1.40001
1.40001
1.40001
1.40001
1.40001
1.40001
1.40001
1.40001
1.40001
1.40001
1.40001
1.40001
1.40001
1.40001
1.40001
1.40001
1.40001
1.40001
1.40001
4.02826
5.46115
5.44921
5.44355
5.45125
5.4652
5.48362
5.5034
5.52246
5.53979
5.55609
5.57113
5.58345
5.5908
5.59323
5.59247
5.59316
5.5979
5.60547
5.61686
5.6335
5.65541
5.67684
5.69398
5.70834
5.71656
5.71802
5.7129
5.70509
5.69901
5.69878
5.70506
5.71658
5.73207
5.74967
5.76734
5.78255
5.79445
5.80408
5.81297
5.81993
5.82372
5.82468
5.82458
5.8261
5.83092
5.83912
5.85012
5.8627
5.87468
5.88387
5.88685
5.88294
5.87429
5.86559
5.85951
5.85703
5.85881
5.86569
5.87678
5.88685
5.89341
5.8972
5.9001
5.90352
5.90771
5.91239
5.91723
5.92057
5.92131
5.91992
5.91717
5.91423
5.91262
5.91307
5.91483
5.91658
5.91712
5.9149
5.90877
5.89762
5.87818
5.84383
5.78983
5.72246
5.661
5.62396
5.61351
1.40001
1.40001
1.40001
1.40001
1.40001
1.40001
1.40001
1.40001
1.40001
1.40001
1.40001
1.40001
1.40001
1.40001
1.40001
1.40001
1.40001
1.40001
1.40001
1.40001
1.40001
1.40001
1.40001
1.40001
1.40001
1.40001
1.40001
1.40001
1.40001
1.40001
1.40001
1.40001
1.40001
1.40001
1.40001
1.40001
1.40001
1.40001
1.40001
1.40001
1.40001
1.40001
1.40001
1.40001
1.40001
1.40001
1.40001
1.40001
1.40001
1.40001
1.40001
1.40001
1.40001
1.40001
1.40001
1.40001
1.40001
1.40001
1.40001
1.40001
1.40001
1.40001
1.40001
1.40001
1.40001
1.40001
1.40001
1.40001
1.40001
1.40001
1.40001
1.40001
1.40001
1.40001
1.40001
1.40001
1.40001
1.40001
1.40001
1.40001
1.40001
1.40001
1.40001
1.40001
1.40001
1.40001
1.40001
1.40001
1.40001
1.40001
1.40001
1.40001
1.40001
1.40001
1.40001
1.40001
1.40001
1.40001
1.40001
1.40001
1.40001
1.40001
1.40001
1.40001
3.9621
5.45829
5.44799
5.44223
5.44932
5.46258
5.4799
5.49854
5.51722
5.53535
5.55319
5.56977
5.58314
5.59104
5.59356
5.5924
5.59255
5.59747
5.60576
5.61765
5.63428
5.65627
5.67763
5.69422
5.70808
5.7153
5.71586
5.71046
5.70253
5.69645
5.69667
5.70313
5.71456
5.73033
5.74845
5.76648
5.78184
5.79375
5.80347
5.81245
5.81946
5.82346
5.82461
5.82459
5.82571
5.8301
5.83801
5.84879
5.86109
5.87264
5.88138
5.88454
5.88146
5.87389
5.8662
5.86022
5.85721
5.85794
5.86326
5.87417
5.8849
5.89223
5.89663
5.89996
5.90347
5.90717
5.91109
5.91504
5.91745
5.9174
5.9159
5.91403
5.91291
5.91318
5.9151
5.91694
5.91757
5.91615
5.91206
5.905
5.89389
5.87481
5.84078
5.78699
5.71984
5.65873
5.62199
5.61261
1.40001
1.40001
1.40001
1.40001
1.40001
1.40001
1.40001
1.40001
1.40001
1.40001
1.40001
1.40001
1.40001
1.40001
1.40001
1.40001
1.40001
1.40001
1.40001
1.40001
1.40001
1.40001
1.40001
1.40001
1.40001
1.40001
1.40001
1.40001
1.40001
1.40001
1.40001
1.40001
1.40001
1.40001
1.40001
1.40001
1.40001
1.40001
1.40001
1.40001
1.40001
1.40001
1.40001
1.40001
1.40001
1.40001
1.40001
1.40001
1.40001
1.40001
1.40001
1.40001
1.40001
1.40001
1.40001
1.40001
1.40001
1.40001
1.40001
1.40001
1.40001
1.40001
1.40001
1.40001
1.40001
1.40001
1.40001
1.40001
1.40001
1.40001
1.40001
1.40001
1.40001
1.40001
1.40001
1.40001
1.40001
1.40001
1.40001
1.40001
1.40001
1.40001
1.40001
1.40001
1.40001
1.40001
1.40001
1.40001
1.40001
1.40001
1.40001
1.40001
1.40001
1.40001
1.40001
1.40001
1.40001
1.40001
1.40001
1.40001
1.40001
1.40001
1.40001
1.40001
3.88676
5.45326
5.44541
5.44052
5.44791
5.4608
5.47659
5.49351
5.51161
5.53083
5.55057
5.56879
5.58306
5.59117
5.59327
5.59127
5.59115
5.59688
5.60629
5.61898
5.63545
5.65673
5.67745
5.69349
5.70688
5.71378
5.71392
5.70837
5.70018
5.69391
5.6943
5.70085
5.71245
5.7287
5.74743
5.76581
5.7813
5.79319
5.803
5.81204
5.81911
5.82317
5.82436
5.82428
5.8249
5.82881
5.83644
5.84718
5.85949
5.87086
5.87923
5.88247
5.87978
5.87299
5.86644
5.86088
5.85747
5.85754
5.86177
5.87228
5.88365
5.8917
5.89634
5.89955
5.90262
5.90585
5.90908
5.91221
5.91377
5.91315
5.91158
5.91059
5.91127
5.91369
5.91692
5.91877
5.91824
5.91496
5.90925
5.90161
5.89075
5.87198
5.83798
5.78397
5.71666
5.65564
5.61922
5.61066
1.40001
1.40001
1.40001
1.40001
1.40001
1.40001
1.40001
1.40001
1.40001
1.40001
1.40001
1.40001
1.40001
1.40001
1.40001
1.40001
1.40001
1.40001
1.40001
1.40001
1.40001
1.40001
1.40001
1.40001
1.40001
1.40001
1.40001
1.40001
1.40001
1.40001
1.40001
1.40001
1.40001
1.40001
1.40001
1.40001
1.40001
1.40001
1.40001
1.40001
1.40001
1.40001
1.40001
1.40001
1.40001
1.40001
1.40001
1.40001
1.40001
1.40001
1.40001
1.40001
1.40001
1.40001
1.40001
1.40001
1.40001
1.40001
1.40001
1.40001
1.40001
1.40001
1.40001
1.40001
1.40001
1.40001
1.40001
1.40001
1.40001
1.40001
1.40001
1.40001
1.40001
1.40001
1.40001
1.40001
1.40001
1.40001
1.40001
1.40001
1.40001
1.40001
1.40001
1.40001
1.40001
1.40001
1.40001
1.40001
1.40001
1.40001
1.40001
1.40001
1.40001
1.40001
1.40001
1.40001
1.40001
1.40001
1.40001
1.40001
1.40001
1.40001
1.40001
1.40001
3.80266
5.44499
5.44122
5.43836
5.44711
5.45985
5.47372
5.48868
5.50634
5.52672
5.54815
5.56763
5.58239
5.59041
5.59203
5.58939
5.5897
5.59657
5.6071
5.62046
5.63644
5.65629
5.67584
5.6914
5.70457
5.71163
5.71199
5.70666
5.6984
5.69192
5.6923
5.6989
5.71068
5.7273
5.74653
5.76517
5.78075
5.79257
5.80239
5.81143
5.81841
5.82245
5.82362
5.8235
5.82383
5.82736
5.83462
5.84531
5.85778
5.86929
5.87761
5.88086
5.87829
5.87164
5.86573
5.86068
5.85739
5.85739
5.8613
5.87147
5.88319
5.89168
5.89631
5.89901
5.90135
5.90385
5.90653
5.90908
5.91011
5.90911
5.90748
5.90703
5.90915
5.91357
5.91777
5.91967
5.91832
5.91374
5.90704
5.89923
5.88854
5.8697
5.83521
5.78054
5.71278
5.65175
5.61573
5.60781
1.40001
1.40001
1.40001
1.40001
1.40001
1.40001
1.40001
1.40001
1.40001
1.40001
1.40001
1.40001
1.40001
1.40001
1.40001
1.40001
1.40001
1.40001
1.40001
1.40001
1.40001
1.40001
1.40001
1.40001
1.40001
1.40001
1.40001
1.40001
1.40001
1.40001
1.40001
1.40001
1.40001
1.40001
1.40001
1.40001
1.40001
1.40001
1.40001
1.40001
1.40001
1.40001
1.40001
1.40001
1.40001
1.40001
1.40001
1.40001
1.40001
1.40001
1.40001
1.40001
1.40001
1.40001
1.40001
1.40001
1.40001
1.40001
1.40001
1.40001
1.40001
1.40001
1.40001
1.40001
1.40001
1.40001
1.40001
1.40001
1.40001
1.40001
1.40001
1.40001
1.40001
1.40001
1.40001
1.40001
1.40001
1.40001
1.40001
1.40001
1.40001
1.40001
1.40001
1.40001
1.40001
1.40001
1.40001
1.40001
1.40001
1.40001
1.40001
1.40001
1.40001
1.40001
1.40001
1.40001
1.40001
1.40001
1.40001
1.40001
1.40001
1.40001
1.40001
1.40001
3.70921
5.42991
5.43799
5.43753
5.44685
5.45859
5.47016
5.48376
5.50192
5.52352
5.54589
5.5658
5.58059
5.58848
5.59004
5.58749
5.58899
5.59694
5.60832
5.62196
5.63721
5.65535
5.67324
5.68825
5.70115
5.70851
5.70947
5.7047
5.69688
5.69053
5.69111
5.69795
5.70973
5.72637
5.74576
5.76446
5.77998
5.79165
5.80129
5.81018
5.81689
5.82088
5.82204
5.82207
5.82264
5.82613
5.833
5.84348
5.85596
5.86774
5.87631
5.87962
5.877
5.87019
5.86403
5.85924
5.85655
5.85714
5.86148
5.8714
5.88299
5.89146
5.89593
5.89809
5.89961
5.90149
5.90397
5.90618
5.90686
5.90559
5.90379
5.90359
5.90654
5.91216
5.91719
5.91933
5.91767
5.91264
5.90573
5.89804
5.8873
5.86784
5.83223
5.77645
5.70807
5.64704
5.61155
5.60399
1.40001
1.40001
1.40001
1.40001
1.40001
1.40001
1.40001
1.40001
1.40001
1.40001
1.40001
1.40001
1.40001
1.40001
1.40001
1.40001
1.40001
1.40001
1.40001
1.40001
1.40001
1.40001
1.40001
1.40001
1.40001
1.40001
1.40001
1.40001
1.40001
1.40001
1.40001
1.40001
1.40001
1.40001
1.40001
1.40001
1.40001
1.40001
1.40001
1.40001
1.40001
1.40001
1.40001
1.40001
1.40001
1.40001
1.40001
1.40001
1.40001
1.40001
1.40001
1.40001
1.40001
1.40001
1.40001
1.40001
1.40001
1.40001
1.40001
1.40001
1.40001
1.40001
1.40001
1.40001
1.40001
1.40001
1.40001
1.40001
1.40001
1.40001
1.40001
1.40001
1.40001
1.40001
1.40001
1.40001
1.40001
1.40001
1.40001
1.40001
1.40001
1.40001
1.40001
1.40001
1.40001
1.40001
1.40001
1.40001
1.40001
1.40001
1.40001
1.40001
1.40001
1.40001
1.40001
1.40001
1.40001
1.40001
1.40001
1.40001
1.40001
1.40001
1.40001
1.40001
3.60695
5.40872
5.43667
5.43726
5.44623
5.45602
5.4656
5.4793
5.49908
5.52176
5.54417
5.56342
5.57751
5.58528
5.58723
5.58578
5.58897
5.59785
5.60993
5.62347
5.63796
5.65444
5.67041
5.68467
5.69714
5.70449
5.7059
5.70181
5.69501
5.68942
5.69076
5.69805
5.7097
5.72606
5.74524
5.76373
5.77899
5.79036
5.79967
5.8081
5.81426
5.81814
5.81936
5.82
5.82142
5.82534
5.83189
5.842
5.85415
5.86603
5.87501
5.87845
5.87568
5.8686
5.86197
5.85719
5.85497
5.85647
5.86162
5.87118
5.88222
5.89023
5.89443
5.89632
5.89756
5.89948
5.90204
5.90409
5.90442
5.90271
5.90049
5.90018
5.90337
5.90939
5.91499
5.91758
5.91617
5.9116
5.9052
5.89783
5.88685
5.86635
5.82919
5.77195
5.70279
5.64168
5.60671
5.59917
1.40001
1.40001
1.40001
1.40001
1.40001
1.40001
1.40001
1.40001
1.40001
1.40001
1.40001
1.40001
1.40001
1.40001
1.40001
1.40001
1.40001
1.40001
1.40001
1.40001
1.40001
1.40001
1.40001
1.40001
1.40001
1.40001
1.40001
1.40001
1.40001
1.40001
1.40001
1.40001
1.40001
1.40001
1.40001
1.40001
1.40001
1.40001
1.40001
1.40001
1.40001
1.40001
1.40001
1.40001
1.40001
1.40001
1.40001
1.40001
1.40001
1.40001
1.40001
1.40001
1.40001
1.40001
1.40001
1.40001
1.40001
1.40001
1.40001
1.40001
1.40001
1.40001
1.40001
1.40001
1.40001
1.40001
1.40001
1.40001
1.40001
1.40001
1.40001
1.40001
1.40001
1.40001
1.40001
1.40001
1.40001
1.40001
1.40001
1.40001
1.40001
1.40001
1.40001
1.40001
1.40001
1.40001
1.40001
1.40001
1.40001
1.40001
1.40001
1.40001
1.40001
1.40001
1.40001
1.40001
1.40001
1.40001
1.40001
1.40001
1.40001
1.40001
1.40001
1.40001
3.49728
5.38287
5.43682
5.43683
5.44447
5.45189
5.4605
5.47599
5.49792
5.52125
5.54296
5.56079
5.57359
5.58127
5.58404
5.58479
5.58973
5.5991
5.6116
5.62472
5.63842
5.65365
5.66803
5.68141
5.69321
5.70008
5.70144
5.69777
5.69227
5.68806
5.69068
5.69873
5.71038
5.72637
5.74501
5.76303
5.77791
5.78893
5.79776
5.80535
5.81071
5.81423
5.81559
5.81724
5.81995
5.82481
5.8313
5.84092
5.85251
5.86422
5.87337
5.87689
5.87396
5.86673
5.85976
5.85496
5.85305
5.85527
5.86137
5.87051
5.8804
5.88752
5.89143
5.89354
5.89543
5.89823
5.90126
5.90324
5.90286
5.90022
5.89721
5.89648
5.89966
5.90557
5.91149
5.91456
5.91384
5.91032
5.90492
5.89803
5.88674
5.86513
5.82646
5.76772
5.69756
5.63604
5.6013
5.59342
1.40001
1.40001
1.40001
1.40001
1.40001
1.40001
1.40001
1.40001
1.40001
1.40001
1.40001
1.40001
1.40001
1.40001
1.40001
1.40001
1.40001
1.40001
1.40001
1.40001
1.40001
1.40001
1.40001
1.40001
1.40001
1.40001
1.40001
1.40001
1.40001
1.40001
1.40001
1.40001
1.40001
1.40001
1.40001
1.40001
1.40001
1.40001
1.40001
1.40001
1.40001
1.40001
1.40001
1.40001
1.40001
1.40001
1.40001
1.40001
1.40001
1.40001
1.40001
1.40001
1.40001
1.40001
1.40001
1.40001
1.40001
1.40001
1.40001
1.40001
1.40001
1.40001
1.40001
1.40001
1.40001
1.40001
1.40001
1.40001
1.40001
1.40001
1.40001
1.40001
1.40001
1.40001
1.40001
1.40001
1.40001
1.40001
1.40001
1.40001
1.40001
1.40001
1.40001
1.40001
1.40001
1.40001
1.40001
1.40001
1.40001
1.40001
1.40001
1.40001
1.40001
1.40001
1.40001
1.40001
1.40001
1.40001
1.40001
1.40001
1.40001
1.40001
1.40001
1.40001
3.3791
5.35667
5.4372
5.43595
5.44135
5.44627
5.45556
5.47424
5.49801
5.52147
5.54194
5.558
5.56956
5.57736
5.58133
5.58471
5.59105
5.60051
5.613
5.62561
5.63862
5.65262
5.66601
5.67859
5.68968
5.69582
5.69674
5.69311
5.68874
5.68621
5.69038
5.69948
5.71138
5.72704
5.745
5.76248
5.777
5.7877
5.79596
5.80242
5.80663
5.8094
5.81091
5.81362
5.81795
5.82415
5.83091
5.84009
5.85109
5.8624
5.87126
5.87459
5.87155
5.86443
5.85754
5.85283
5.85123
5.85377
5.86019
5.86857
5.87691
5.88301
5.88691
5.88999
5.89357
5.89793
5.90175
5.90348
5.90202
5.89796
5.89378
5.89253
5.89561
5.90128
5.90717
5.91055
5.9107
5.90847
5.90428
5.89798
5.88648
5.86403
5.82425
5.76422
5.69286
5.63041
5.59531
5.5867
1.40001
1.40001
1.40001
1.40001
1.40001
1.40001
1.40001
1.40001
1.40001
1.40001
1.40001
1.40001
1.40001
1.40001
1.40001
1.40001
1.40001
1.40001
1.40001
1.40001
1.40001
1.40001
1.40001
1.40001
1.40001
1.40001
1.40001
1.40001
1.40001
1.40001
1.40001
1.40001
1.40001
1.40001
1.40001
1.40001
1.40001
1.40001
1.40001
1.40001
1.40001
1.40001
1.40001
1.40001
1.40001
1.40001
1.40001
1.40001
1.40001
1.40001
1.40001
1.40001
1.40001
1.40001
1.40001
1.40001
1.40001
1.40001
1.40001
1.40001
1.40001
1.40001
1.40001
1.40001
1.40001
1.40001
1.40001
1.40001
1.40001
1.40001
1.40001
1.40001
1.40001
1.40001
1.40001
1.40001
1.40001
1.40001
1.40001
1.40001
1.40001
1.40001
1.40001
1.40001
1.40001
1.40001
1.40001
1.40001
1.40001
1.40001
1.40001
1.40001
1.40001
1.40001
1.40001
1.40001
1.40001
1.40001
1.40001
1.40001
1.40001
1.40001
1.40001
1.40001
3.24987
5.33378
5.4363
5.43249
5.43566
5.44002
5.45215
5.47382
5.49832
5.52121
5.5404
5.55529
5.5662
5.57424
5.57999
5.58598
5.59316
5.602
5.6134
5.62569
5.63801
5.65068
5.66353
5.6756
5.68623
5.69179
5.6922
5.68839
5.68473
5.68383
5.68951
5.6997
5.712
5.72739
5.74485
5.76191
5.77624
5.78681
5.79457
5.79986
5.80272
5.8044
5.80582
5.80928
5.81526
5.82296
5.83033
5.83928
5.84972
5.86045
5.8687
5.87151
5.86841
5.86168
5.85526
5.85084
5.84956
5.85219
5.85813
5.86518
5.87171
5.87685
5.88118
5.88607
5.8922
5.8986
5.90318
5.90444
5.90155
5.89577
5.89034
5.88853
5.89142
5.89686
5.90246
5.90597
5.90684
5.9057
5.90271
5.89708
5.88567
5.86292
5.82254
5.76156
5.68891
5.62507
5.58888
5.57921
1.40001
1.40001
1.40001
1.40001
1.40001
1.40001
1.40001
1.40001
1.40001
1.40001
1.40001
1.40001
1.40001
1.40001
1.40001
1.40001
1.40001
1.40001
1.40001
1.40001
1.40001
1.40001
1.40001
1.40001
1.40001
1.40001
1.40001
1.40001
1.40001
1.40001
1.40001
1.40001
1.40001
1.40001
1.40001
1.40001
1.40001
1.40001
1.40001
1.40001
1.40001
1.40001
1.40001
1.40001
1.40001
1.40001
1.40001
1.40001
1.40001
1.40001
1.40001
1.40001
1.40001
1.40001
1.40001
1.40001
1.40001
1.40001
1.40001
1.40001
1.40001
1.40001
1.40001
1.40001
1.40001
1.40001
1.40001
1.40001
1.40001
1.40001
1.40001
1.40001
1.40001
1.40001
1.40001
1.40001
1.40001
1.40001
1.40001
1.40001
1.40001
1.40001
1.40001
1.40001
1.40001
1.40001
1.40001
1.40001
1.40001
1.40001
1.40001
1.40001
1.40001
1.40001
1.40001
1.40001
1.40001
1.40001
1.40001
1.40001
1.40001
1.40001
1.40001
1.40001
3.11118
5.31097
5.43188
5.42607
5.42947
5.43537
5.45105
5.47422
5.49818
5.52028
5.53875
5.5529
5.56359
5.57234
5.58037
5.58835
5.59549
5.60366
5.61337
5.62476
5.63603
5.64766
5.6602
5.67204
5.68248
5.68788
5.68799
5.68414
5.68071
5.68116
5.68814
5.6991
5.71185
5.72707
5.7441
5.76098
5.7753
5.78606
5.79354
5.79773
5.79919
5.79972
5.80074
5.80444
5.8118
5.82083
5.82902
5.83805
5.84813
5.85824
5.86567
5.86785
5.86478
5.85856
5.85289
5.84895
5.84797
5.85047
5.8556
5.86086
5.86538
5.8696
5.87469
5.88197
5.8911
5.89966
5.90486
5.9055
5.90108
5.8936
5.88703
5.88468
5.88733
5.89254
5.89777
5.90124
5.9025
5.90205
5.9
5.89505
5.88408
5.8616
5.82112
5.75951
5.68558
5.62001
5.58213
5.5712
1.40001
1.40001
1.40001
1.40001
1.40001
1.40001
1.40001
1.40001
1.40001
1.40001
1.40001
1.40001
1.40001
1.40001
1.40001
1.40001
1.40001
1.40001
1.40001
1.40001
1.40001
1.40001
1.40001
1.40001
1.40001
1.40001
1.40001
1.40001
1.40001
1.40001
1.40001
1.40001
1.40001
1.40001
1.40001
1.40001
1.40001
1.40001
1.40001
1.40001
1.40001
1.40001
1.40001
1.40001
1.40001
1.40001
1.40001
1.40001
1.40001
1.40001
1.40001
1.40001
1.40001
1.40001
1.40001
1.40001
1.40001
1.40001
1.40001
1.40001
1.40001
1.40001
1.40001
1.40001
1.40001
1.40001
1.40001
1.40001
1.40001
1.40001
1.40001
1.40001
1.40001
1.40001
1.40001
1.40001
1.40001
1.40001
1.40001
1.40001
1.40001
1.40001
1.40001
1.40001
1.40001
1.40001
1.40001
1.40001
1.40001
1.40001
1.40001
1.40001
1.40001
1.40001
1.40001
1.40001
1.40001
1.40001
1.40001
1.40001
1.40001
1.40001
1.40001
1.40001
2.96612
5.27964
5.42563
5.41968
5.42403
5.43336
5.45256
5.47547
5.49803
5.51905
5.53641
5.54989
5.56119
5.57156
5.58257
5.59138
5.59836
5.60509
5.61293
5.623
5.63304
5.64388
5.65612
5.6679
5.67837
5.68395
5.68412
5.68046
5.67718
5.67865
5.68653
5.69787
5.71098
5.72596
5.74261
5.75926
5.77376
5.78493
5.79241
5.79584
5.79619
5.79566
5.79613
5.79986
5.80815
5.81812
5.82707
5.83637
5.84625
5.85578
5.8623
5.86384
5.86081
5.85514
5.85035
5.84698
5.84619
5.8484
5.85261
5.85596
5.85861
5.86203
5.868
5.87773
5.88974
5.9002
5.90582
5.9059
5.90033
5.8915
5.88409
5.88128
5.88357
5.88847
5.89328
5.89656
5.8979
5.89773
5.89621
5.89182
5.88148
5.85975
5.8197
5.75775
5.68261
5.61519
5.57526
5.56309
1.40001
1.40001
1.40001
1.40001
1.40001
1.40001
1.40001
1.40001
1.40001
1.40001
1.40001
1.40001
1.40001
1.40001
1.40001
1.40001
1.40001
1.40001
1.40001
1.40001
1.40001
1.40001
1.40001
1.40001
1.40001
1.40001
1.40001
1.40001
1.40001
1.40001
1.40001
1.40001
1.40001
1.40001
1.40001
1.40001
1.40001
1.40001
1.40001
1.40001
1.40001
1.40001
1.40001
1.40001
1.40001
1.40001
1.40001
1.40001
1.40001
1.40001
1.40001
1.40001
1.40001
1.40001
1.40001
1.40001
1.40001
1.40001
1.40001
1.40001
1.40001
1.40001
1.40001
1.40001
1.40001
1.40001
1.40001
1.40001
1.40001
1.40001
1.40001
1.40001
1.40001
1.40001
1.40001
1.40001
1.40001
1.40001
1.40001
1.40001
1.40001
1.40001
1.40001
1.40001
1.40001
1.40001
1.40001
1.40001
1.40001
1.40001
1.40001
1.40001
1.40001
1.40001
1.40001
1.40001
1.40001
1.40001
1.40001
1.40001
1.40001
1.40001
1.40001
1.40001
2.81726
5.23573
5.41973
5.41365
5.42032
5.43405
5.45578
5.47789
5.49882
5.51823
5.53381
5.54704
5.55934
5.57238
5.58578
5.59468
5.60103
5.60587
5.61202
5.6202
5.62926
5.63946
5.65143
5.66325
5.67391
5.6801
5.68066
5.67736
5.67431
5.67658
5.68502
5.69652
5.70983
5.7243
5.74036
5.75636
5.77096
5.78272
5.79048
5.79361
5.79334
5.79217
5.79214
5.79586
5.80472
5.81522
5.82471
5.83422
5.84392
5.85298
5.85869
5.85973
5.85676
5.85161
5.84769
5.84481
5.84414
5.84606
5.84946
5.8512
5.85237
5.85512
5.86175
5.87331
5.88747
5.89936
5.90535
5.90517
5.89898
5.88941
5.88159
5.8785
5.88027
5.88468
5.88903
5.892
5.89322
5.89309
5.89162
5.88747
5.87773
5.85705
5.81786
5.75594
5.67974
5.61061
5.5686
5.55538
1.40001
1.40001
1.40001
1.40001
1.40001
1.40001
1.40001
1.40001
1.40001
1.40001
1.40001
1.40001
1.40001
1.40001
1.40001
1.40001
1.40001
1.40001
1.40001
1.40001
1.40001
1.40001
1.40001
1.40001
1.40001
1.40001
1.40001
1.40001
1.40001
1.40001
1.40001
1.40001
1.40001
1.40001
1.40001
1.40001
1.40001
1.40001
1.40001
1.40001
1.40001
1.40001
1.40001
1.40001
1.40001
1.40001
1.40001
1.40001
1.40001
1.40001
1.40001
1.40001
1.40001
1.40001
1.40001
1.40001
1.40001
1.40001
1.40001
1.40001
1.40001
1.40001
1.40001
1.40001
1.40001
1.40001
1.40001
1.40001
1.40001
1.40001
1.40001
1.40001
1.40001
1.40001
1.40001
1.40001
1.40001
1.40001
1.40001
1.40001
1.40001
1.40001
1.40001
1.40001
1.40001
1.40001
1.40001
1.40001
1.40001
1.40001
1.40001
1.40001
1.40001
1.40001
1.40001
1.40001
1.40001
1.40001
1.40001
1.40001
1.40001
1.40001
1.40001
1.40001
2.6662
5.17988
5.41503
5.41031
5.41927
5.43731
5.46018
5.4815
5.50104
5.51827
5.53226
5.54528
5.55837
5.57411
5.5879
5.59733
5.6026
5.60625
5.61073
5.61683
5.62504
5.63461
5.64619
5.65797
5.66903
5.67616
5.67751
5.67477
5.67207
5.67509
5.68401
5.69572
5.70923
5.72306
5.73767
5.7524
5.76647
5.77855
5.78683
5.79025
5.78993
5.78878
5.78873
5.79267
5.8019
5.81263
5.82242
5.83195
5.84134
5.84998
5.85499
5.85563
5.85261
5.84789
5.84464
5.84222
5.84178
5.84359
5.84636
5.84707
5.84732
5.84958
5.85644
5.86881
5.88396
5.89666
5.90306
5.903
5.89681
5.88727
5.87956
5.8764
5.87751
5.88112
5.8849
5.88757
5.88858
5.8883
5.8866
5.88228
5.8729
5.85322
5.81515
5.75366
5.67674
5.60624
5.56243
5.54855
1.40001
1.40001
1.40001
1.40001
1.40001
1.40001
1.40001
1.40001
1.40001
1.40001
1.40001
1.40001
1.40001
1.40001
1.40001
1.40001
1.40001
1.40001
1.40001
1.40001
1.40001
1.40001
1.40001
1.40001
1.40001
1.40001
1.40001
1.40001
1.40001
1.40001
1.40001
1.40001
1.40001
1.40001
1.40001
1.40001
1.40001
1.40001
1.40001
1.40001
1.40001
1.40001
1.40001
1.40001