/*--------------------------------*- C++ -*----------------------------------*\
  =========                 |
  \\      /  F ield         | OpenFOAM: The Open Source CFD Toolbox
   \\    /   O peration     | Website:  https://openfoam.org
    \\  /    A nd           | Version:  7
     \\/     M anipulation  |
\*---------------------------------------------------------------------------*/
FoamFile
{
    version     2.0;
    format      ascii;
    class       volScalarField;
    location    "2.3";
    object      p;
}
// * * * * * * * * * * * * * * * * * * * * * * * * * * * * * * * * * * * * * //

dimensions      [1 -1 -2 0 0 0 0];

internalField   nonuniform List<scalar> 
258048
(
1
1
1
1
1
1
1
1
1
1
1
1
1
1
1
1
1
1
1
1
1
1
1
1
1
1
1
1
1
1
1
1
1
1
1
1
1
1
1
1
1
1
1
1
1
1
1
1
1
1
1
1
1
1
1
1
1
1
1
1
1
1
1
1
1
1
1
1
1
1
1
1
1
1
1
1
1
1
1
1
1
1
1
1
1
1
1
1
1
1
1
1
1
1
1
1
1
1
1
2.13932
8.85881
10.4109
10.419
10.4607
10.503
10.5455
10.5816
10.6117
10.639
10.666
10.6933
10.7213
10.75
10.7789
10.8078
10.8381
10.87
10.9012
10.9298
10.9553
10.9794
11.0038
11.0286
11.0536
11.0768
11.0961
11.1115
11.1264
11.1494
11.1856
11.2331
11.2828
11.3206
11.3378
11.3386
11.3298
11.3301
11.3549
11.4047
11.466
11.5133
11.529
11.5183
11.4944
11.4809
11.4936
11.5355
11.5965
11.653
11.6835
11.6862
11.6731
11.6618
11.6695
11.7012
11.7457
11.785
11.8036
11.8008
11.7865
11.7763
11.7849
11.8134
11.85
11.8793
11.8968
11.9107
11.9267
11.9454
11.965
11.9758
11.9692
11.9512
11.9297
11.9224
11.9402
11.9737
12.0123
12.042
12.0571
12.0594
12.0573
12.0523
12.0461
12.0411
12.0362
12.0309
12.0308
12.043
12.0699
12.1021
12.1289
1
1
1
1
1
1
1
1
1
1
1
1
1
1
1
1
1
1
1
1
1
1
1
1
1
1
1
1
1
1
1
1
1
1
1
1
1
1
1
1
1
1
1
1
1
1
1
1
1
1
1
1
1
1
1
1
1
1
1
1
1
1
1
1
1
1
1
1
1
1
1
1
1
1
1
1
1
1
1
1
1
1
1
1
1
1
1
1
1
1
1
1
1
1
1
1
1
1
1
2.12599
8.83666
10.414
10.4243
10.4632
10.5028
10.544
10.5808
10.6117
10.6389
10.6656
10.6924
10.7194
10.7474
10.7769
10.8074
10.8394
10.8722
10.9035
10.931
10.9546
10.9767
11.001
11.0272
11.0536
11.0782
11.0991
11.1162
11.1323
11.1536
11.1855
11.2276
11.2727
11.3092
11.3303
11.3384
11.3374
11.3402
11.3619
11.4045
11.4578
11.5022
11.5222
11.5189
11.5017
11.491
11.5008
11.5363
11.5914
11.6461
11.6791
11.6866
11.6776
11.6685
11.6744
11.7013
11.7419
11.7805
11.8012
11.8013
11.79
11.7818
11.79
11.8157
11.8493
11.8771
11.8953
11.9106
11.9275
11.9464
11.965
11.9747
11.9679
11.9504
11.9303
11.9237
11.9409
11.9731
12.0102
12.0397
12.0555
12.0595
12.0583
12.0531
12.0458
12.0392
12.0334
12.0286
12.03
12.0436
12.0709
12.1023
12.1281
1
1
1
1
1
1
1
1
1
1
1
1
1
1
1
1
1
1
1
1
1
1
1
1
1
1
1
1
1
1
1
1
1
1
1
1
1
1
1
1
1
1
1
1
1
1
1
1
1
1
1
1
1
1
1
1
1
1
1
1
1
1
1
1
1
1
1
1
1
1
1
1
1
1
1
1
1
1
1
1
1
1
1
1
1
1
1
1
1
1
1
1
1
1
1
1
1
1
1
2.0994
8.80867
10.4177
10.4291
10.4643
10.5008
10.541
10.578
10.6098
10.6376
10.6644
10.6908
10.7169
10.7439
10.7735
10.8057
10.8396
10.874
10.906
10.9331
10.9551
10.9745
10.9966
11.0235
11.052
11.0787
11.102
11.1217
11.1399
11.1611
11.1892
11.224
11.261
11.2935
11.3165
11.3315
11.3412
11.3523
11.3745
11.4088
11.4492
11.4848
11.5059
11.5104
11.5052
11.5031
11.5135
11.5419
11.5865
11.6333
11.6661
11.679
11.6777
11.6753
11.6819
11.703
11.7362
11.7699
11.7912
11.7952
11.7888
11.7857
11.7957
11.8187
11.8477
11.8723
11.8906
11.9076
11.9263
11.9465
11.9647
11.9732
11.9657
11.9486
11.93
11.9246
11.9414
11.9723
12.0074
12.0358
12.0524
12.0583
12.0587
12.0538
12.045
12.036
12.0286
12.0243
12.0279
12.044
12.072
12.1023
12.1268
1
1
1
1
1
1
1
1
1
1
1
1
1
1
1
1
1
1
1
1
1
1
1
1
1
1
1
1
1
1
1
1
1
1
1
1
1
1
1
1
1
1
1
1
1
1
1
1
1
1
1
1
1
1
1
1
1
1
1
1
1
1
1
1
1
1
1
1
1
1
1
1
1
1
1
1
1
1
1
1
1
1
1
1
1
1
1
1
1
1
1
1
1
1
1
1
1
1
1
2.058
8.76777
10.4213
10.4321
10.4662
10.5011
10.5395
10.5756
10.6073
10.6354
10.6623
10.6885
10.7139
10.7401
10.7694
10.8025
10.8382
10.8743
10.9073
10.9347
10.9562
10.9739
10.993
11.0184
11.0482
11.0779
11.1045
11.1276
11.1477
11.1678
11.191
11.2177
11.2466
11.2752
11.3022
11.3282
11.3497
11.3674
11.3866
11.4092
11.4366
11.4642
11.4887
11.5045
11.5133
11.5189
11.5271
11.5468
11.58
11.619
11.6521
11.6723
11.6809
11.6847
11.6903
11.7046
11.73
11.7594
11.7813
11.7907
11.7916
11.7935
11.8036
11.8223
11.8456
11.8672
11.8858
11.9047
11.9256
11.9468
11.9639
11.971
11.9632
11.9471
11.9306
11.9261
11.9418
11.9706
12.0035
12.0312
12.049
12.0572
12.0591
12.054
12.0433
12.0316
12.0228
12.0194
12.026
12.0447
12.0731
12.1019
12.1246
1
1
1
1
1
1
1
1
1
1
1
1
1
1
1
1
1
1
1
1
1
1
1
1
1
1
1
1
1
1
1
1
1
1
1
1
1
1
1
1
1
1
1
1
1
1
1
1
1
1
1
1
1
1
1
1
1
1
1
1
1
1
1
1
1
1
1
1
1
1
1
1
1
1
1
1
1
1
1
1
1
1
1
1
1
1
1
1
1
1
1
1
1
1
1
1
1
1
1
2.00615
8.71162
10.4258
10.436
10.4684
10.5002
10.5358
10.5705
10.6018
10.6306
10.6587
10.6861
10.7121
10.7379
10.7662
10.7989
10.8349
10.8718
10.9061
10.9349
10.9574
10.9752
10.9919
11.0134
11.0415
11.0729
11.1034
11.1303
11.1529
11.1729
11.1924
11.2127
11.2344
11.2597
11.2909
11.3264
11.3579
11.3804
11.3959
11.4078
11.4241
11.4441
11.4716
11.4985
11.5208
11.5339
11.5398
11.5509
11.5739
11.605
11.6377
11.6651
11.6835
11.6932
11.6976
11.7054
11.7232
11.7477
11.7708
11.7863
11.795
11.8016
11.8108
11.8246
11.8422
11.861
11.8804
11.9016
11.9247
11.9462
11.962
11.9675
11.9601
11.9457
11.9315
11.9278
11.9415
11.9678
11.9984
12.0259
12.0452
12.0558
12.0589
12.053
12.0401
12.026
12.0163
12.0145
12.0242
12.0455
12.0738
12.1006
12.121
1
1
1
1
1
1
1
1
1
1
1
1
1
1
1
1
1
1
1
1
1
1
1
1
1
1
1
1
1
1
1
1
1
1
1
1
1
1
1
1
1
1
1
1
1
1
1
1
1
1
1
1
1
1
1
1
1
1
1
1
1
1
1
1
1
1
1
1
1
1
1
1
1
1
1
1
1
1
1
1
1
1
1
1
1
1
1
1
1
1
1
1
1
1
1
1
1
1
1
1.94514
8.64216
10.4276
10.4361
10.4679
10.499
10.533
10.5663
10.5971
10.6266
10.656
10.6844
10.7107
10.736
10.7629
10.7941
10.8296
10.8668
10.9027
10.9338
10.9583
10.9773
10.9931
11.0114
11.0355
11.0648
11.0971
11.1277
11.1537
11.1752
11.1935
11.2099
11.2276
11.2517
11.2848
11.3248
11.3608
11.3847
11.3972
11.403
11.4121
11.4283
11.459
11.4956
11.5267
11.544
11.5482
11.5532
11.5676
11.593
11.626
11.6597
11.6861
11.6998
11.7017
11.7039
11.7156
11.7366
11.7616
11.784
11.8001
11.8098
11.8164
11.8246
11.8373
11.8543
11.8752
11.8992
11.9237
11.9444
11.958
11.9623
11.9562
11.9444
11.933
11.9296
11.9406
11.9639
11.9925
12.0201
12.0413
12.0543
12.0578
12.0502
12.0354
12.0197
12.0101
12.0106
12.0232
12.0462
12.0738
12.0981
12.116
1
1
1
1
1
1
1
1
1
1
1
1
1
1
1
1
1
1
1
1
1
1
1
1
1
1
1
1
1
1
1
1
1
1
1
1
1
1
1
1
1
1
1
1
1
1
1
1
1
1
1
1
1
1
1
1
1
1
1
1
1
1
1
1
1
1
1
1
1
1
1
1
1
1
1
1
1
1
1
1
1
1
1
1
1
1
1
1
1
1
1
1
1
1
1
1
1
1
1
1.87676
8.55588
10.4276
10.4357
10.467
10.4975
10.5303
10.5622
10.5927
10.6229
10.6535
10.6827
10.7092
10.734
10.7598
10.7895
10.8237
10.8605
10.8972
10.9305
10.9579
10.9788
10.9951
11.0119
11.0325
11.0574
11.0872
11.1187
11.148
11.1735
11.1945
11.2114
11.2284
11.2518
11.2828
11.3201
11.3553
11.3797
11.3919
11.3966
11.405
11.4206
11.4522
11.493
11.5282
11.548
11.5516
11.5534
11.5625
11.5841
11.6172
11.655
11.6867
11.7029
11.7028
11.7007
11.7076
11.7267
11.7547
11.7841
11.8063
11.8169
11.8196
11.8221
11.8307
11.8472
11.8708
11.8978
11.9226
11.9411
11.9517
11.9548
11.9512
11.9431
11.9349
11.9319
11.9396
11.9594
11.9859
12.0139
12.0373
12.0522
12.0552
12.0455
12.0291
12.0131
12.0049
12.0082
12.0231
12.0466
12.0725
12.0938
12.1089
1
1
1
1
1
1
1
1
1
1
1
1
1
1
1
1
1
1
1
1
1
1
1
1
1
1
1
1
1
1
1
1
1
1
1
1
1
1
1
1
1
1
1
1
1
1
1
1
1
1
1
1
1
1
1
1
1
1
1
1
1
1
1
1
1
1
1
1
1
1
1
1
1
1
1
1
1
1
1
1
1
1
1
1
1
1
1
1
1
1
1
1
1
1
1
1
1
1
1
1.80217
8.45396
10.4239
10.4344
10.4646
10.4949
10.5274
10.5588
10.5894
10.6203
10.6513
10.6806
10.707
10.7314
10.7566
10.7855
10.8187
10.8544
10.8905
10.9244
10.9541
10.9777
10.9965
11.0143
11.0331
11.0543
11.0793
11.1081
11.1377
11.167
11.1936
11.2159
11.2356
11.2579
11.2833
11.3123
11.3428
11.3669
11.3816
11.3915
11.4049
11.4219
11.4508
11.4888
11.5232
11.5443
11.5498
11.552
11.5596
11.5794
11.6116
11.6505
11.6841
11.7016
11.7008
11.6962
11.7001
11.7183
11.7498
11.7858
11.8124
11.8222
11.8204
11.817
11.8224
11.8398
11.8671
11.8975
11.9219
11.9366
11.9432
11.9448
11.9444
11.9415
11.937
11.9345
11.9388
11.9546
11.9788
12.0074
12.0329
12.049
12.0508
12.0392
12.0217
12.0066
12.0009
12.0074
12.024
12.0466
12.0697
12.0875
12.1002
1
1
1
1
1
1
1
1
1
1
1
1
1
1
1
1
1
1
1
1
1
1
1
1
1
1
1
1
1
1
1
1
1
1
1
1
1
1
1
1
1
1
1
1
1
1
1
1
1
1
1
1
1
1
1
1
1
1
1
1
1
1
1
1
1
1
1
1
1
1
1
1
1
1
1
1
1
1
1
1
1
1
1
1
1
1
1
1
1
1
1
1
1
1
1
1
1
1
1
1.72204
8.33289
10.417
10.4306
10.4612
10.4921
10.5251
10.5566
10.5878
10.619
10.6497
10.6782
10.7039
10.7282
10.7537
10.7826
10.8153
10.8497
10.8839
10.9165
10.9461
10.9727
10.9957
11.0167
11.036
11.0548
11.0748
11.0987
11.1269
11.1594
11.1924
11.2217
11.2456
11.2659
11.2835
11.3011
11.3249
11.349
11.3697
11.3892
11.4093
11.4281
11.4522
11.4834
11.5142
11.5357
11.5449
11.5507
11.5598
11.5786
11.6086
11.6457
11.679
11.6972
11.6963
11.6908
11.6934
11.7117
11.7471
11.7879
11.8163
11.8247
11.8185
11.8103
11.8135
11.8324
11.8642
11.8976
11.9207
11.931
11.9331
11.9332
11.9359
11.9385
11.9386
11.9369
11.9383
11.9501
11.9717
12.0004
12.0276
12.044
12.0443
12.0315
12.0138
12.0007
11.9982
12.0077
12.0255
12.0463
12.0657
12.0797
12.0897
1
1
1
1
1
1
1
1
1
1
1
1
1
1
1
1
1
1
1
1
1
1
1
1
1
1
1
1
1
1
1
1
1
1
1
1
1
1
1
1
1
1
1
1
1
1
1
1
1
1
1
1
1
1
1
1
1
1
1
1
1
1
1
1
1
1
1
1
1
1
1
1
1
1
1
1
1
1
1
1
1
1
1
1
1
1
1
1
1
1
1
1
1
1
1
1
1
1
1
1.63523
8.18529
10.4115
10.4291
10.4593
10.4892
10.5219
10.5538
10.5857
10.617
10.647
10.6745
10.6999
10.7248
10.7511
10.7804
10.8128
10.8457
10.8776
10.9077
10.9364
10.9643
10.9914
11.0167
11.039
11.0575
11.0738
11.0925
11.1178
11.1516
11.1905
11.2266
11.2544
11.2716
11.2812
11.2893
11.3065
11.331
11.3597
11.3896
11.4162
11.4356
11.4534
11.4757
11.5012
11.5231
11.5382
11.5497
11.5621
11.5805
11.6066
11.6395
11.6708
11.6891
11.6899
11.6854
11.6885
11.7079
11.7457
11.7881
11.8168
11.8242
11.8143
11.8028
11.8045
11.8255
11.8616
11.8974
11.9191
11.9246
11.9224
11.921
11.926
11.934
11.939
11.9384
11.9381
11.9465
11.9653
11.9933
12.0211
12.0369
12.0359
12.0228
12.006
11.9956
11.9965
12.0086
12.0268
12.0452
12.0605
12.0702
12.0775
1
1
1
1
1
1
1
1
1
1
1
1
1
1
1
1
1
1
1
1
1
1
1
1
1
1
1
1
1
1
1
1
1
1
1
1
1
1
1
1
1
1
1
1
1
1
1
1
1
1
1
1
1
1
1
1
1
1
1
1
1
1
1
1
1
1
1
1
1
1
1
1
1
1
1
1
1
1
1
1
1
1
1
1
1
1
1
1
1
1
1
1
1
1
1
1
1
1
1
1.54462
8.01274
10.4065
10.4264
10.456
10.4862
10.5191
10.5511
10.5831
10.6141
10.6432
10.6702
10.6962
10.7224
10.7498
10.7792
10.8107
10.8421
10.8716
10.8994
10.9265
10.9549
10.9849
11.0145
11.0404
11.0603
11.0748
11.0897
11.1121
11.145
11.1869
11.2278
11.258
11.273
11.2767
11.2785
11.2916
11.3176
11.3535
11.3919
11.4228
11.4411
11.4525
11.4664
11.4863
11.5091
11.531
11.5491
11.5652
11.5833
11.605
11.632
11.6593
11.6775
11.6821
11.6808
11.6862
11.7065
11.7441
11.7855
11.8131
11.8196
11.808
11.795
11.7965
11.8194
11.8587
11.8957
11.9158
11.9177
11.9119
11.9091
11.9155
11.9277
11.9372
11.9382
11.9376
11.9438
11.9602
11.9863
12.013
12.0276
12.0256
12.0134
11.9989
11.9915
11.9955
12.0095
12.0275
12.0434
12.0545
12.0597
12.0644
1
1
1
1
1
1
1
1
1
1
1
1
1
1
1
1
1
1
1
1
1
1
1
1
1
1
1
1
1
1
1
1
1
1
1
1
1
1
1
1
1
1
1
1
1
1
1
1
1
1
1
1
1
1
1
1
1
1
1
1
1
1
1
1
1
1
1
1
1
1
1
1
1
1
1
1
1
1
1
1
1
1
1
1
1
1
1
1
1
1
1
1
1
1
1
1
1
1
1
1.452
7.81279
10.4006
10.4236
10.4528
10.4838
10.5167
10.5481
10.5792
10.6098
10.6388
10.6661
10.693
10.7211
10.7501
10.7795
10.8093
10.8386
10.8659
10.8916
10.918
10.9468
10.9782
11.0106
11.0399
11.0619
11.0764
11.0893
11.1095
11.1396
11.1807
11.223
11.2548
11.2696
11.2713
11.2708
11.2823
11.3098
11.3506
11.3939
11.4264
11.4429
11.449
11.4561
11.472
11.4963
11.5241
11.5486
11.5681
11.5854
11.6023
11.6228
11.6453
11.6637
11.6733
11.6777
11.6861
11.707
11.7421
11.7802
11.8055
11.8111
11.7999
11.7878
11.7904
11.8148
11.8552
11.8916
11.9099
11.9097
11.902
11.8985
11.9055
11.92
11.9327
11.9361
11.9365
11.942
11.9564
11.9798
12.0036
12.0162
12.0139
12.0038
11.9927
11.9887
11.9951
12.0099
12.0268
12.04
12.0471
12.0484
12.0511
1
1
1
1
1
1
1
1
1
1
1
1
1
1
1
1
1
1
1
1
1
1
1
1
1
1
1
1
1
1
1
1
1
1
1
1
1
1
1
1
1
1
1
1
1
1
1
1
1
1
1
1
1
1
1
1
1
1
1
1
1
1
1
1
1
1
1
1
1
1
1
1
1
1
1
1
1
1
1
1
1
1
1
1
1
1
1
1
1
1
1
1
1
1
1
1
1
1
1
1.35303
7.57858
10.3983
10.4201
10.45
10.4829
10.5161
10.5471
10.5763
10.6049
10.6326
10.6601
10.689
10.72
10.7509
10.7805
10.8092
10.836
10.8604
10.8839
10.9099
10.9396
10.972
11.0058
11.0371
11.0615
11.0774
11.0899
11.1081
11.1349
11.1732
11.2148
11.2476
11.2636
11.2667
11.2671
11.2784
11.3065
11.3488
11.3933
11.4261
11.4412
11.4438
11.4464
11.4599
11.4855
11.5175
11.5468
11.569
11.5854
11.5979
11.6123
11.6305
11.6496
11.6647
11.6752
11.6873
11.708
11.7391
11.772
11.794
11.799
11.7904
11.7816
11.7865
11.8115
11.8505
11.8844
11.9008
11.9002
11.8928
11.8897
11.8967
11.9114
11.9255
11.9318
11.9347
11.9407
11.9537
11.9738
11.9933
12.0032
12.0014
11.994
11.9871
11.9867
11.9948
12.009
12.0242
12.0344
12.0382
12.0365
12.0383
1
1
1
1
1
1
1
1
1
1
1
1
1
1
1
1
1
1
1
1
1
1
1
1
1
1
1
1
1
1
1
1
1
1
1
1
1
1
1
1
1
1
1
1
1
1
1
1
1
1
1
1
1
1
1
1
1
1
1
1
1
1
1
1
1
1
1
1
1
1
1
1
1
1
1
1
1
1
1
1
1
1
1
1
1
1
1
1
1
1
1
1
1
1
1
1
1
1
1
1.2506
7.31441
10.4019
10.42
10.4469
10.4801
10.5127
10.5432
10.5712
10.5985
10.6256
10.6539
10.6855
10.72
10.7537
10.7845
10.8119
10.8358
10.8568
10.8777
10.9026
10.9322
10.9647
10.9989
11.0315
11.058
11.0763
11.0898
11.1064
11.1298
11.1645
11.2045
11.2384
11.2574
11.2637
11.2662
11.2773
11.3043
11.3456
11.3895
11.4223
11.437
11.4384
11.439
11.4512
11.477
11.5105
11.5423
11.5662
11.5817
11.5911
11.6011
11.6167
11.6369
11.6569
11.6731
11.6881
11.7083
11.7346
11.7614
11.7799
11.7851
11.7807
11.7769
11.7846
11.809
11.8441
11.8741
11.8892
11.8895
11.8843
11.8826
11.8894
11.9026
11.9164
11.9253
11.9315
11.9391
11.9512
11.9677
11.9823
11.9891
11.9883
11.9841
11.9821
11.9854
11.9942
12.0067
12.0193
12.0266
12.0277
12.0246
12.027
1
1
1
1
1
1
1
1
1
1
1
1
1
1
1
1
1
1
1
1
1
1
1
1
1
1
1
1
1
1
1
1
1
1
1
1
1
1
1
1
1
1
1
1
1
1
1
1
1
1
1
1
1
1
1
1
1
1
1
1
1
1
1
1
1
1
1
1
1
1
1
1
1
1
1
1
1
1
1
1
1
1
1
1
1
1
1
1
1
1
1
1
1
1
1
1
1
1
1
1.13857
7.04233
10.4084
10.4222
10.4465
10.4807
10.5135
10.5446
10.5719
10.5967
10.6209
10.6475
10.679
10.7144
10.7494
10.7815
10.8095
10.8329
10.8523
10.8716
10.8951
10.9239
10.956
10.9906
11.0246
11.0532
11.0736
11.0883
11.1035
11.1242
11.156
11.1949
11.2303
11.2529
11.2624
11.2664
11.2765
11.3008
11.3395
11.3823
11.4155
11.4314
11.434
11.4348
11.446
11.4707
11.5032
11.5351
11.5591
11.574
11.5821
11.5904
11.6054
11.6272
11.6503
11.67
11.6869
11.7057
11.7273
11.7485
11.7641
11.7713
11.7721
11.7738
11.7837
11.8058
11.8354
11.8613
11.8755
11.878
11.876
11.8762
11.8826
11.8939
11.9067
11.9176
11.927
11.9366
11.9481
11.961
11.9709
11.9749
11.9749
11.9745
11.9772
11.984
11.993
12.0028
12.0119
12.0164
12.0159
12.0131
12.0175
1
1
1
1
1
1
1
1
1
1
1
1
1
1
1
1
1
1
1
1
1
1
1
1
1
1
1
1
1
1
1
1
1
1
1
1
1
1
1
1
1
1
1
1
1
1
1
1
1
1
1
1
1
1
1
1
1
1
1
1
1
1
1
1
1
1
1
1
1
1
1
1
1
1
1
1
1
1
1
1
1
1
1
1
1
1
1
1
1
1
1
1
1
1
1
1
1
1
1
1.02128
6.74763
10.3869
10.4136
10.436
10.472
10.5055
10.5384
10.5677
10.5937
10.6179
10.6433
10.6739
10.709
10.7448
10.7787
10.8083
10.8322
10.851
10.8685
10.8895
10.916
10.9468
10.9814
11.0164
11.0467
11.069
11.0844
11.0985
11.1177
11.1482
11.1872
11.2244
11.2499
11.2616
11.2659
11.2741
11.295
11.3302
11.3718
11.4063
11.4254
11.4309
11.4333
11.4437
11.4658
11.4952
11.5245
11.5476
11.5625
11.5713
11.5807
11.5973
11.621
11.6455
11.6658
11.6823
11.6987
11.7165
11.7342
11.7492
11.7596
11.7657
11.7714
11.782
11.8007
11.8248
11.8467
11.861
11.8667
11.8676
11.8695
11.8753
11.885
11.8971
11.9095
11.9215
11.9328
11.9435
11.9532
11.9591
11.961
11.9621
11.9651
11.9721
11.9821
11.9909
11.9971
12.002
12.004
12.0028
12.002
12.0094
1
1
1
1
1
1
1
1
1
1
1
1
1
1
1
1
1
1
1
1
1
1
1
1
1
1
1
1
1
1
1
1
1
1
1
1
1
1
1
1
1
1
1
1
1
1
1
1
1
1
1
1
1
1
1
1
1
1
1
1
1
1
1
1
1
1
1
1
1
1
1
1
1
1
1
1
1
1
1
1
1
1
1
1
1
1
1
1
1
1
1
1
1
1
1
1
1
1
1
1.00033
6.36514
10.3574
10.4055
10.427
10.4643
10.4988
10.5337
10.5657
10.5934
10.6176
10.6413
10.6691
10.7021
10.7377
10.7733
10.8057
10.8316
10.8508
10.8665
10.8839
10.9072
10.9365
10.9714
11.0078
11.0399
11.0637
11.0794
11.0929
11.1114
11.1417
11.1814
11.2201
11.2476
11.2601
11.2635
11.2696
11.287
11.3192
11.3599
11.3965
11.4196
11.4292
11.4334
11.4428
11.4615
11.4861
11.5113
11.5326
11.5482
11.5593
11.5721
11.592
11.6176
11.6421
11.6609
11.6744
11.6872
11.7019
11.7189
11.7365
11.7514
11.7617
11.7692
11.7784
11.7925
11.8117
11.8315
11.8471
11.856
11.8594
11.8618
11.8665
11.8753
11.8878
11.902
11.9159
11.9278
11.9373
11.9441
11.9473
11.9478
11.9497
11.9557
11.9666
11.9793
11.9874
11.9895
11.99
11.9897
11.9889
11.9913
12.0024
1
1
1
1
1
1
1
1
1
1
1
1
1
1
1
1
1
1
1
1
1
1
1
1
1
1
1
1
1
1
1
1
1
1
1
1
1
1
1
1
1
1
1
1
1
1
1
1
1
1
1
1
1
1
1
1
1
1
1
1
1
1
1
1
1
1
1
1
1
1
1
1
1
1
1
1
1
1
1
1
1
1
1
1
1
1
1
1
1
1
1
1
1
1
1
1
1
1
1
1
5.94237
10.3238
10.3966
10.416
10.4543
10.4903
10.5279
10.563
10.5931
10.6179
10.6403
10.6647
10.6944
10.7291
10.7665
10.802
10.8309
10.8509
10.8646
10.8782
10.8981
10.9264
10.9619
11
11.0337
11.0584
11.074
11.087
11.1055
11.1358
11.1759
11.2155
11.2438
11.2563
11.2588
11.2629
11.278
11.3081
11.3485
11.3868
11.4134
11.4265
11.4326
11.4409
11.4561
11.4761
11.4972
11.5167
11.5331
11.547
11.5642
11.5882
11.6159
11.6397
11.655
11.6637
11.6722
11.6847
11.7035
11.7262
11.7466
11.7597
11.7661
11.7712
11.7805
11.7961
11.8161
11.8347
11.8466
11.8509
11.8526
11.8561
11.8648
11.8789
11.8952
11.9101
11.9216
11.9293
11.934
11.9355
11.9353
11.9378
11.946
11.9602
11.9751
11.9823
11.9805
11.9764
11.9741
11.9745
11.9809
11.9958
1
1
1
1
1
1
1
1
1
1
1
1
1
1
1
1
1
1
1
1
1
1
1
1
1
1
1
1
1
1
1
1
1
1
1
1
1
1
1
1
1
1
1
1
1
1
1
1
1
1
1
1
1
1
1
1
1
1
1
1
1
1
1
1
1
1
1
1
1
1
1
1
1
1
1
1
1
1
1
1
1
1
1
1
1
1
1
1
1
1
1
1
1
1
1
1
1
1
1
1
5.49935
10.2778
10.3899
10.4066
10.4449
10.482
10.5217
10.5598
10.5922
10.618
10.6394
10.6604
10.6867
10.72
10.7583
10.7966
10.8283
10.8493
10.8616
10.8719
10.8893
10.9171
10.9537
10.9934
11.0283
11.0536
11.069
11.0817
11.1001
11.1302
11.1702
11.2096
11.2376
11.2495
11.2512
11.2545
11.2688
11.2985
11.3392
11.3787
11.4071
11.4222
11.4293
11.4364
11.4487
11.4651
11.4836
11.5019
11.5187
11.5349
11.556
11.5841
11.614
11.6368
11.6478
11.6511
11.6551
11.6662
11.6887
11.7184
11.7439
11.7578
11.7608
11.7607
11.7655
11.7794
11.8016
11.8245
11.8388
11.8423
11.842
11.8441
11.8533
11.8697
11.8883
11.9036
11.9137
11.9195
11.9227
11.9236
11.9233
11.9263
11.9361
11.9528
11.9693
11.9756
11.9704
11.962
11.9579
11.9598
11.9704
11.9888
1
1
1
1
1
1
1
1
1
1
1
1
1
1
1
1
1
1
1
1
1
1
1
1
1
1
1
1
1
1
1
1
1
1
1
1
1
1
1
1
1
1
1
1
1
1
1
1
1
1
1
1
1
1
1
1
1
1
1
1
1
1
1
1
1
1
1
1
1
1
1
1
1
1
1
1
1
1
1
1
1
1
1
1
1
1
1
1
1
1
1
1
1
1
1
1
1
1
1
1
5.04824
10.2131
10.3859
10.3979
10.4348
10.4724
10.5145
10.5554
10.5903
10.6171
10.6374
10.6559
10.6794
10.7114
10.7499
10.7895
10.8231
10.8451
10.8566
10.8649
10.8809
10.9092
10.9469
10.9877
11.0235
11.0489
11.0639
11.0761
11.0943
11.1241
11.1636
11.2023
11.2296
11.2409
11.2421
11.2456
11.2605
11.291
11.3325
11.3723
11.4007
11.4155
11.4218
11.4275
11.4381
11.4534
11.4715
11.4898
11.5069
11.5243
11.5476
11.5783
11.6098
11.6316
11.6387
11.6376
11.6377
11.6486
11.676
11.712
11.7414
11.7545
11.7529
11.748
11.7493
11.763
11.7888
11.8158
11.8312
11.8328
11.8299
11.8307
11.841
11.8599
11.8805
11.8958
11.9044
11.9087
11.9111
11.9118
11.9118
11.9151
11.9259
11.9442
11.9618
11.9673
11.9595
11.9474
11.9414
11.945
11.9595
11.9803
1
1
1
1
1
1
1
1
1
1
1
1
1
1
1
1
1
1
1
1
1
1
1
1
1
1
1
1
1
1
1
1
1
1
1
1
1
1
1
1
1
1
1
1
1
1
1
1
1
1
1
1
1
1
1
1
1
1
1
1
1
1
1
1
1
1
1
1
1
1
1
1
1
1
1
1
1
1
1
1
1
1
1
1
1
1
1
1
1
1
1
1
1
1
1
1
1
1
1
1
4.59173
10.1242
10.3845
10.3915
10.4249
10.4622
10.5063
10.55
10.5872
10.6153
10.6356
10.6518
10.673
10.7038
10.7421
10.7819
10.8159
10.8382
10.8494
10.8569
10.8726
10.9022
10.9412
10.983
11.0193
11.0447
11.0591
11.0707
11.0886
11.1179
11.1566
11.1941
11.2198
11.2297
11.2303
11.2345
11.251
11.2835
11.3264
11.3666
11.3942
11.4073
11.4117
11.4157
11.4258
11.442
11.4613
11.4806
11.4978
11.5151
11.5386
11.5699
11.6017
11.6228
11.6279
11.6244
11.6224
11.6343
11.6661
11.7061
11.7363
11.7472
11.7414
11.7327
11.7322
11.7472
11.7774
11.8072
11.8228
11.8223
11.8172
11.8172
11.8286
11.8496
11.8714
11.8864
11.8938
11.8972
11.8993
11.9001
11.9003
11.9038
11.9151
11.9344
11.9525
11.9574
11.9478
11.9328
11.9252
11.9302
11.9476
11.97
1
1
1
1
1
1
1
1
1
1
1
1
1
1
1
1
1
1
1
1
1
1
1
1
1
1
1
1
1
1
1
1
1
1
1
1
1
1
1
1
1
1
1
1
1
1
1
1
1
1
1
1
1
1
1
1
1
1
1
1
1
1
1
1
1
1
1
1
1
1
1
1
1
1
1
1
1
1
1
1
1
1
1
1
1
1
1
1
1
1
1
1
1
1
1
1
1
1
1
1
4.13043
10.0034
10.389
10.3895
10.4171
10.4526
10.498
10.5442
10.5833
10.6127
10.6334
10.6484
10.6677
10.6973
10.7346
10.7739
10.8077
10.83
10.8414
10.849
10.8651
10.8961
10.9366
10.979
11.0152
11.0396
11.0526
11.0628
11.0804
11.1097
11.1485
11.1854
11.2102
11.219
11.2194
11.224
11.2419
11.2762
11.3202
11.3605
11.3869
11.3978
11.3998
11.4024
11.4128
11.4308
11.4524
11.4731
11.4908
11.5077
11.5297
11.5592
11.5897
11.6103
11.6152
11.6114
11.6097
11.6239
11.6583
11.699
11.7273
11.7351
11.7269
11.7165
11.716
11.7335
11.7671
11.7982
11.8129
11.8109
11.8043
11.8042
11.8163
11.8381
11.86
11.8746
11.8815
11.8849
11.8873
11.8882
11.8884
11.8921
11.9036
11.9235
11.9417
11.9462
11.9354
11.9184
11.9096
11.9153
11.9346
11.9573
1
1
1
1
1
1
1
1
1
1
1
1
1
1
1
1
1
1
1
1
1
1
1
1
1
1
1
1
1
1
1
1
1
1
1
1
1
1
1
1
1
1
1
1
1
1
1
1
1
1
1
1
1
1
1
1
1
1
1
1
1
1
1
1
1
1
1
1
1
1
1
1
1
1
1
1
1
1
1
1
1
1
1
1
1
1
1
1
1
1
1
1
1
1
1
1
1
1
1
1
3.67046
9.83805
10.3944
10.3933
10.4145
10.4465
10.4912
10.5382
10.5788
10.6096
10.6305
10.6454
10.6635
10.6921
10.7285
10.7665
10.7989
10.8201
10.8313
10.8393
10.8563
10.8894
10.9318
10.975
11.0111
11.0345
11.0456
11.0542
11.0714
11.1009
11.1398
11.1766
11.2008
11.2091
11.2095
11.2145
11.2329
11.2678
11.3121
11.3522
11.3779
11.3876
11.3883
11.39
11.4005
11.4199
11.4434
11.4659
11.4844
11.5008
11.5207
11.5469
11.5746
11.5945
11.6008
11.599
11.6003
11.6173
11.6516
11.6895
11.7141
11.7191
11.7105
11.7011
11.7022
11.7222
11.7572
11.7873
11.8004
11.7977
11.791
11.7916
11.8042
11.8256
11.8465
11.8608
11.8682
11.8723
11.8751
11.876
11.8761
11.8797
11.8915
11.9116
11.9296
11.9337
11.9223
11.9043
11.8945
11.9005
11.9204
11.9424
1
1
1
1
1
1
1
1
1
1
1
1
1
1
1
1
1
1
1
1
1
1
1
1
1
1
1
1
1
1
1
1
1
1
1
1
1
1
1
1
1
1
1
1
1
1
1
1
1
1
1
1
1
1
1
1
1
1
1
1
1
1
1
1
1
1
1
1
1
1
1
1
1
1
1
1
1
1
1
1
1
1
1
1
1
1
1
1
1
1
1
1
1
1
1
1
1
1
1
1
3.21942
9.6271
10.3948
10.3997
10.4176
10.4452
10.4867
10.5328
10.5736
10.6049
10.6264
10.6417
10.6599
10.6879
10.7234
10.7599
10.7906
10.8105
10.8214
10.8295
10.8476
10.8825
10.9267
10.9706
11.0064
11.0286
11.0376
11.0449
11.062
11.0915
11.1302
11.1669
11.1909
11.1994
11.2007
11.2064
11.2247
11.2584
11.3014
11.3408
11.3668
11.3771
11.3783
11.38
11.3901
11.4092
11.4333
11.4571
11.4767
11.4932
11.5113
11.5339
11.5581
11.5769
11.5857
11.5882
11.5941
11.6131
11.6443
11.6763
11.6962
11.6996
11.693
11.6867
11.6905
11.7127
11.7468
11.7744
11.7858
11.7832
11.7777
11.7795
11.792
11.812
11.8316
11.8457
11.8539
11.8592
11.8625
11.8631
11.8628
11.8665
11.8786
11.8987
11.9162
11.9199
11.9085
11.8905
11.8801
11.8857
11.905
11.9253
1
1
1
1
1
1
1
1
1
1
1
1
1
1
1
1
1
1
1
1
1
1
1
1
1
1
1
1
1
1
1
1
1
1
1
1
1
1
1
1
1
1
1
1
1
1
1
1
1
1
1
1
1
1
1
1
1
1
1
1
1
1
1
1
1
1
1
1
1
1
1
1
1
1
1
1
1
1
1
1
1
1
1
1
1
1
1
1
1
1
1
1
1
1
1
1
1
1
1
1
2.78706
9.37024
10.3952
10.4049
10.4217
10.4457
10.4841
10.5281
10.5679
10.5988
10.6205
10.6365
10.6553
10.6841
10.7192
10.7546
10.7834
10.8013
10.8114
10.8196
10.8391
10.8755
10.9208
10.9647
10.9997
11.0208
11.0287
11.0359
11.0537
11.0829
11.1203
11.1558
11.1794
11.1887
11.192
11.1994
11.2177
11.2492
11.2892
11.3268
11.3531
11.3655
11.3691
11.3722
11.3819
11.3993
11.4223
11.4461
11.4666
11.4836
11.5004
11.5201
11.5414
11.5594
11.5712
11.5791
11.5896
11.6089
11.6346
11.6593
11.6748
11.6784
11.6755
11.6734
11.6807
11.7042
11.7356
11.7596
11.7695
11.7679
11.7641
11.7669
11.7788
11.7971
11.8154
11.8296
11.839
11.8453
11.8488
11.849
11.8487
11.8527
11.8651
11.8848
11.9014
11.9047
11.894
11.8768
11.8663
11.8708
11.8885
11.906
1
1
1
1
1
1
1
1
1
1
1
1
1
1
1
1
1
1
1
1
1
1
1
1
1
1
1
1
1
1
1
1
1
1
1
1
1
1
1
1
1
1
1
1
1
1
1
1
1
1
1
1
1
1
1
1
1
1
1
1
1
1
1
1
1
1
1
1
1
1
1
1
1
1
1
1
1
1
1
1
1
1
1
1
1
1
1
1
1
1
1
1
1
1
1
1
1
1
1
1
2.38627
9.06147
10.4055
10.4067
10.4243
10.4468
10.4814
10.5224
10.5603
10.5903
10.6117
10.6283
10.6487
10.6787
10.7143
10.749
10.7763
10.7928
10.802
10.8109
10.832
10.8693
10.9143
10.9567
10.99
11.0103
11.0186
11.0279
11.0472
11.0759
11.1106
11.143
11.165
11.1756
11.1822
11.1926
11.2115
11.2407
11.2768
11.3115
11.3375
11.3526
11.3599
11.3656
11.3752
11.3906
11.4109
11.4332
11.4537
11.471
11.4874
11.5057
11.5255
11.5438
11.5588
11.5712
11.5848
11.6022
11.6218
11.6398
11.6519
11.6572
11.6588
11.6613
11.6723
11.6953
11.7229
11.7432
11.7521
11.7519
11.7497
11.7531
11.7642
11.7811
11.7988
11.8136
11.8239
11.8304
11.8337
11.8338
11.8339
11.8386
11.851
11.8696
11.8848
11.888
11.8786
11.8632
11.8532
11.8559
11.8708
11.8847
1
1
1
1
1
1
1
1
1
1
1
1
1
1
1
1
1
1
1
1
1
1
1
1
1
1
1
1
1
1
1
1
1
1
1
1
1
1
1
1
1
1
1
1
1
1
1
1
1
1
1
1
1
1
1
1
1
1
1
1
1
1
1
1
1
1
1
1
1
1
1
1
1
1
1
1
1
1
1
1
1
1
1
1
1
1
1
1
1
1
1
1
1
1
1
1
1
1
1
1
2.02676
8.6961
10.4083
10.4043
10.4219
10.4441
10.4766
10.5148
10.5507
10.5792
10.6002
10.6176
10.6401
10.6721
10.7078
10.7419
10.7683
10.7841
10.7932
10.804
10.827
10.8647
10.9081
10.9474
10.9778
10.9973
11.0074
11.0199
11.0414
11.0698
11.1014
11.1298
11.1492
11.1604
11.1703
11.1842
11.2044
11.2321
11.2649
11.2965
11.3215
11.3385
11.3496
11.3584
11.3687
11.3821
11.3993
11.419
11.4383
11.4556
11.4725
11.4912
11.5113
11.5309
11.5483
11.5633
11.5775
11.5917
11.6059
11.6191
11.6296
11.6372
11.643
11.6499
11.6632
11.6848
11.7086
11.7259
11.7344
11.7353
11.7341
11.7375
11.7477
11.7642
11.7825
11.798
11.8085
11.8143
11.8168
11.8172
11.8184
11.8243
11.8363
11.8527
11.8661
11.8695
11.8622
11.8496
11.8406
11.841
11.8521
11.8615
1
1
1
1
1
1
1
1
1
1
1
1
1
1
1
1
1
1
1
1
1
1
1
1
1
1
1
1
1
1
1
1
1
1
1
1
1
1
1
1
1
1
1
1
1
1
1
1
1
1
1
1
1
1
1
1
1
1
1
1
1
1
1
1
1
1
1
1
1
1
1
1
1
1
1
1
1
1
1
1
1
1
1
1
1
1
1
1
1
1
1
1
1
1
1
1
1
1
1
1
1.71028
8.28751
10.4172
10.3969
10.4194
10.44
10.4707
10.5059
10.5394
10.5666
10.5878
10.6069
10.6315
10.6635
10.6985
10.7316
10.7574
10.7738
10.7846
10.7986
10.824
10.8616
10.9021
10.9377
10.9644
10.9823
10.9944
11.0105
11.0345
11.0631
11.0925
11.1174
11.134
11.1446
11.1563
11.1729
11.1948
11.2222
11.2531
11.2825
11.3062
11.3238
11.3374
11.349
11.3604
11.3728
11.3873
11.4043
11.4216
11.4384
11.4565
11.4771
11.4992
11.5203
11.5386
11.5536
11.566
11.577
11.5879
11.5988
11.6092
11.6192
11.6285
11.6384
11.6526
11.6723
11.6931
11.7083
11.7165
11.7179
11.7169
11.7197
11.7295
11.7467
11.7666
11.7829
11.7925
11.7966
11.798
11.7994
11.8028
11.8101
11.8209
11.8341
11.8451
11.849
11.8447
11.8355
11.8281
11.8264
11.8327
11.8369
1
1
1
1
1
1
1
1
1
1
1
1
1
1
1
1
1
1
1
1
1
1
1
1
1
1
1
1
1
1
1
1
1
1
1
1
1
1
1
1
1
1
1
1
1
1
1
1
1
1
1
1
1
1
1
1
1
1
1
1
1
1
1
1
1
1
1
1
1
1
1
1
1
1
1
1
1
1
1
1
1
1
1
1
1
1
1
1
1
1
1
1
1
1
1
1
1
1
1
1
1.44266
7.81018
10.4015
10.3922
10.4104
10.4338
10.4631
10.4954
10.5268
10.5533
10.5753
10.5965
10.6231
10.6537
10.6856
10.7169
10.7428
10.7613
10.7757
10.7938
10.8217
10.8584
10.8958
10.9279
10.9516
10.9679
10.981
10.9991
11.0244
11.0531
11.0818
11.1053
11.1207
11.1309
11.1429
11.1599
11.1825
11.21
11.2404
11.269
11.2919
11.3093
11.3235
11.3366
11.3493
11.3616
11.3745
11.3893
11.4044
11.4207
11.4405
11.4641
11.4887
11.5106
11.528
11.5405
11.5499
11.5587
11.5688
11.58
11.5915
11.6031
11.6144
11.6258
11.6398
11.6581
11.677
11.6908
11.6984
11.6994
11.6978
11.7
11.7103
11.7294
11.7512
11.7677
11.7754
11.777
11.7774
11.7806
11.787
11.7958
11.8046
11.8137
11.8221
11.8268
11.8258
11.8205
11.8149
11.8114
11.8126
11.812
1
1
1
1
1
1
1
1
1
1
1
1
1
1
1
1
1
1
1
1
1
1
1
1
1
1
1
1
1
1
1
1
1
1
1
1
1
1
1
1
1
1
1
1
1
1
1
1
1
1
1
1
1
1
1
1
1
1
1
1
1
1
1
1
1
1
1
1
1
1
1
1
1
1
1
1
1
1
1
1
1
1
1
1
1
1
1
1
1
1
1
1
1
1
1
1
1
1
1
1
1.2106
7.29735
10.3827
10.3864
10.4001
10.4261
10.4555
10.486
10.5152
10.5413
10.5649
10.5892
10.6179
10.6476
10.6768
10.7049
10.7294
10.7488
10.7664
10.788
10.817
10.8515
10.8862
10.9167
10.9399
10.9561
10.9697
10.9874
11.0113
11.0391
11.0678
11.0924
11.1091
11.1204
11.1319
11.1475
11.1686
11.1954
11.226
11.2553
11.2784
11.2954
11.3089
11.3218
11.3349
11.3478
11.3602
11.3738
11.3877
11.4038
11.4255
11.4519
11.4783
11.4999
11.5145
11.5234
11.53
11.5384
11.5501
11.5633
11.5761
11.5882
11.5999
11.6115
11.6252
11.6431
11.661
11.6733
11.6796
11.6792
11.6767
11.6789
11.6906
11.7126
11.736
11.7515
11.7568
11.756
11.7558
11.7611
11.7712
11.7811
11.7872
11.7921
11.7975
11.8028
11.8053
11.8042
11.8003
11.7953
11.7919
11.7875
1
1
1
1
1
1
1
1
1
1
1
1
1
1
1
1
1
1
1
1
1
1
1
1
1
1
1
1
1
1
1
1
1
1
1
1
1
1
1
1
1
1
1
1
1
1
1
1
1
1
1
1
1
1
1
1
1
1
1
1
1
1
1
1
1
1
1
1
1
1
1
1
1
1
1
1
1
1
1
1
1
1
1
1
1
1
1
1
1
1
1
1
1
1
1
1
1
1
1
1
1.01247
6.74969
10.3419
10.3623
10.3823
10.4129
10.4419
10.4717
10.5014
10.5287
10.5543
10.5821
10.6113
10.6377
10.6632
10.6892
10.7145
10.7373
10.7594
10.7833
10.8108
10.8412
10.8735
10.9039
10.9286
10.9464
10.9608
10.9767
10.9968
11.0215
11.05
11.0773
11.0977
11.1117
11.1233
11.1365
11.1545
11.1794
11.21
11.2407
11.265
11.2818
11.2939
11.3055
11.3181
11.3313
11.3443
11.3579
11.3717
11.3885
11.4119
11.4398
11.4664
11.4861
11.4971
11.5026
11.5079
11.5178
11.5328
11.5487
11.5619
11.5729
11.5838
11.5952
11.6092
11.6279
11.6452
11.6555
11.6594
11.6569
11.6539
11.6573
11.6717
11.6963
11.7201
11.7335
11.736
11.7336
11.7338
11.7415
11.7546
11.7649
11.7685
11.7694
11.7719
11.7776
11.7835
11.7859
11.7836
11.7779
11.7707
11.7643
1
1
1
1
1
1
1
1
1
1
1
1
1
1
1
1
1
1
1
1
1
1
1
1
1
1
1
1
1
1
1
1
1
1
1
1
1
1
1
1
1
1
1
1
1
1
1
1
1
1
1
1
1
1
1
1
1
1
1
1
1
1
1
1
1
1
1
1
1
1
1
1
1
1
1
1
1
1
1
1
1
1
1
1
1
1
1
1
1
1
1
1
1
1
1
1
1
1
1
1
1.0001
6.10774
10.2349
10.3284
10.365
10.4023
10.4314
10.4601
10.4895
10.5183
10.5463
10.5749
10.6011
10.6242
10.6479
10.675
10.7039
10.7314
10.7567
10.7795
10.8016
10.8248
10.8534
10.885
10.9145
10.9377
10.9548
10.9686
10.9834
11.0034
11.0304
11.0602
11.0854
11.1034
11.1156
11.1264
11.1407
11.1627
11.1926