/*--------------------------------*- C++ -*----------------------------------*\
  =========                 |
  \\      /  F ield         | OpenFOAM: The Open Source CFD Toolbox
   \\    /   O peration     | Website:  https://openfoam.org
    \\  /    A nd           | Version:  7
     \\/     M anipulation  |
\*---------------------------------------------------------------------------*/
FoamFile
{
    version     2.0;
    format      ascii;
    class       volScalarField;
    location    "2.3";
    object      rho;
}
// * * * * * * * * * * * * * * * * * * * * * * * * * * * * * * * * * * * * * //

dimensions      [1 -3 0 0 0 0 0];

internalField   nonuniform List<scalar> 
258048
(
1.40001
1.40001
1.40001
1.40001
1.40001
1.40001
1.40001
1.40001
1.40001
1.40001
1.40001
1.40001
1.40001
1.40001
1.40001
1.40001
1.40001
1.40001
1.40001
1.40001
1.40001
1.40001
1.40001
1.40001
1.40001
1.40001
1.40001
1.40001
1.40001
1.40001
1.40001
1.40001
1.40001
1.40001
1.40001
1.40001
1.40001
1.40001
1.40001
1.40001
1.40001
1.40001
1.40001
1.40001
1.40001
1.40001
1.40001
1.40001
1.40001
1.40001
1.40001
1.40001
1.40001
1.40001
1.40001
1.40001
1.40001
1.40001
1.40001
1.40001
1.40001
1.40001
1.40001
1.40001
1.40001
1.40001
1.40001
1.40001
1.40001
1.40001
1.40001
1.40001
1.40001
1.40001
1.40001
1.40001
1.40001
1.40001
1.40001
1.40001
1.40001
1.40001
1.40001
1.40001
1.40001
1.40001
1.40001
1.40001
1.40001
1.40001
1.40001
1.40001
1.40001
1.40001
1.40001
1.40001
1.40001
1.40001
1.40001
2.02122
4.8819
5.42849
5.4184
5.42609
5.43847
5.45454
5.47046
5.4852
5.49909
5.51267
5.5254
5.53606
5.54433
5.55118
5.55836
5.56768
5.57939
5.59231
5.60507
5.61702
5.62843
5.63951
5.64996
5.65929
5.6664
5.67065
5.67296
5.6757
5.68312
5.69741
5.7171
5.73803
5.75455
5.76233
5.76189
5.75573
5.75046
5.7537
5.76836
5.79034
5.80941
5.81777
5.81706
5.81148
5.80746
5.81122
5.82351
5.84154
5.85807
5.8662
5.86597
5.86137
5.85794
5.86134
5.87336
5.88982
5.90459
5.91199
5.91191
5.90849
5.9064
5.9109
5.92234
5.93586
5.94623
5.95194
5.95586
5.95975
5.96392
5.96805
5.96995
5.96654
5.95887
5.951
5.94869
5.95526
5.96737
5.98088
5.9907
5.99471
5.99405
5.99209
5.98919
5.98519
5.98026
5.9737
5.96431
5.95275
5.94284
5.9392
5.94216
5.94888
1.40001
1.40001
1.40001
1.40001
1.40001
1.40001
1.40001
1.40001
1.40001
1.40001
1.40001
1.40001
1.40001
1.40001
1.40001
1.40001
1.40001
1.40001
1.40001
1.40001
1.40001
1.40001
1.40001
1.40001
1.40001
1.40001
1.40001
1.40001
1.40001
1.40001
1.40001
1.40001
1.40001
1.40001
1.40001
1.40001
1.40001
1.40001
1.40001
1.40001
1.40001
1.40001
1.40001
1.40001
1.40001
1.40001
1.40001
1.40001
1.40001
1.40001
1.40001
1.40001
1.40001
1.40001
1.40001
1.40001
1.40001
1.40001
1.40001
1.40001
1.40001
1.40001
1.40001
1.40001
1.40001
1.40001
1.40001
1.40001
1.40001
1.40001
1.40001
1.40001
1.40001
1.40001
1.40001
1.40001
1.40001
1.40001
1.40001
1.40001
1.40001
1.40001
1.40001
1.40001
1.40001
1.40001
1.40001
1.40001
1.40001
1.40001
1.40001
1.40001
1.40001
1.40001
1.40001
1.40001
1.40001
1.40001
1.40001
2.01391
4.87244
5.42924
5.4202
5.42711
5.43854
5.45409
5.47025
5.48527
5.49917
5.51262
5.52511
5.53539
5.54336
5.5504
5.55823
5.56818
5.58026
5.59319
5.60554
5.6168
5.62745
5.6385
5.64949
5.65931
5.66694
5.67175
5.67466
5.67782
5.68461
5.69724
5.71496
5.7343
5.75042
5.75969
5.76195
5.75842
5.75409
5.75628
5.76823
5.78718
5.80527
5.81544
5.81731
5.81411
5.81118
5.81391
5.82387
5.83973
5.85554
5.86455
5.86603
5.863
5.86035
5.86313
5.87344
5.88847
5.90289
5.9111
5.91217
5.90973
5.90841
5.91279
5.92323
5.93565
5.9455
5.95148
5.95585
5.96001
5.96425
5.96801
5.96952
5.96602
5.95858
5.95121
5.94916
5.95548
5.96715
5.98016
5.98988
5.99419
5.99407
5.99245
5.9895
5.98507
5.97959
5.97275
5.96352
5.95246
5.94303
5.93952
5.9422
5.94861
1.40001
1.40001
1.40001
1.40001
1.40001
1.40001
1.40001
1.40001
1.40001
1.40001
1.40001
1.40001
1.40001
1.40001
1.40001
1.40001
1.40001
1.40001
1.40001
1.40001
1.40001
1.40001
1.40001
1.40001
1.40001
1.40001
1.40001
1.40001
1.40001
1.40001
1.40001
1.40001
1.40001
1.40001
1.40001
1.40001
1.40001
1.40001
1.40001
1.40001
1.40001
1.40001
1.40001
1.40001
1.40001
1.40001
1.40001
1.40001
1.40001
1.40001
1.40001
1.40001
1.40001
1.40001
1.40001
1.40001
1.40001
1.40001
1.40001
1.40001
1.40001
1.40001
1.40001
1.40001
1.40001
1.40001
1.40001
1.40001
1.40001
1.40001
1.40001
1.40001
1.40001
1.40001
1.40001
1.40001
1.40001
1.40001
1.40001
1.40001
1.40001
1.40001
1.40001
1.40001
1.40001
1.40001
1.40001
1.40001
1.40001
1.40001
1.40001
1.40001
1.40001
1.40001
1.40001
1.40001
1.40001
1.40001
1.40001
1.99975
4.86094
5.43027
5.42213
5.42796
5.43831
5.45341
5.4695
5.48484
5.49895
5.51237
5.52461
5.53442
5.54197
5.54909
5.5576
5.56837
5.5811
5.5943
5.60642
5.61703
5.62666
5.63695
5.64822
5.65881
5.66721
5.67293
5.67668
5.6805
5.68711
5.69827
5.7133
5.72983
5.74452
5.75469
5.75956
5.75974
5.75855
5.76109
5.76985
5.78378
5.7986
5.80951
5.81435
5.81524
5.81554
5.8186
5.82601
5.83793
5.8508
5.85971
5.86322
5.86303
5.86282
5.86592
5.87411
5.88638
5.89897
5.90742
5.91011
5.90931
5.90986
5.915
5.92449
5.93525
5.94399
5.94997
5.95485
5.95958
5.96425
5.96783
5.96887
5.9651
5.95782
5.95109
5.94948
5.95568
5.96689
5.97919
5.98856
5.99314
5.99368
5.99261
5.98976
5.98476
5.97843
5.97108
5.962
5.95171
5.94309
5.93984
5.9422
5.94812
1.40001
1.40001
1.40001
1.40001
1.40001
1.40001
1.40001
1.40001
1.40001
1.40001
1.40001
1.40001
1.40001
1.40001
1.40001
1.40001
1.40001
1.40001
1.40001
1.40001
1.40001
1.40001
1.40001
1.40001
1.40001
1.40001
1.40001
1.40001
1.40001
1.40001
1.40001
1.40001
1.40001
1.40001
1.40001
1.40001
1.40001
1.40001
1.40001
1.40001
1.40001
1.40001
1.40001
1.40001
1.40001
1.40001
1.40001
1.40001
1.40001
1.40001
1.40001
1.40001
1.40001
1.40001
1.40001
1.40001
1.40001
1.40001
1.40001
1.40001
1.40001
1.40001
1.40001
1.40001
1.40001
1.40001
1.40001
1.40001
1.40001
1.40001
1.40001
1.40001
1.40001
1.40001
1.40001
1.40001
1.40001
1.40001
1.40001
1.40001
1.40001
1.40001
1.40001
1.40001
1.40001
1.40001
1.40001
1.40001
1.40001
1.40001
1.40001
1.40001
1.40001
1.40001
1.40001
1.40001
1.40001
1.40001
1.40001
1.97804
4.84576
5.43175
5.42401
5.42967
5.43933
5.45359
5.46924
5.48442
5.49849
5.51176
5.52367
5.53313
5.54042
5.54757
5.55657
5.56809
5.58146
5.59498
5.60716
5.61748
5.62645
5.63564
5.64644
5.65756
5.66708
5.67402
5.67887
5.68324
5.68929
5.69849
5.71052
5.72412
5.73754
5.74922
5.75826
5.76281
5.76418
5.76602
5.77036
5.77907
5.79074
5.80297
5.81212
5.81792
5.82099
5.82342
5.82784
5.83558
5.84546
5.85452
5.86071
5.86415
5.86631
5.86903
5.87468
5.88414
5.89507
5.90381
5.90851
5.91039
5.91284
5.91809
5.92604
5.93482
5.94246
5.94848
5.9539
5.95933
5.96432
5.96745
5.96789
5.96398
5.95713
5.95124
5.95001
5.95581
5.96631
5.97785
5.987
5.99201
5.99329
5.99274
5.98984
5.98407
5.97681
5.96904
5.96031
5.95095
5.94323
5.94015
5.94203
5.94729
1.40001
1.40001
1.40001
1.40001
1.40001
1.40001
1.40001
1.40001
1.40001
1.40001
1.40001
1.40001
1.40001
1.40001
1.40001
1.40001
1.40001
1.40001
1.40001
1.40001
1.40001
1.40001
1.40001
1.40001
1.40001
1.40001
1.40001
1.40001
1.40001
1.40001
1.40001
1.40001
1.40001
1.40001
1.40001
1.40001
1.40001
1.40001
1.40001
1.40001
1.40001
1.40001
1.40001
1.40001
1.40001
1.40001
1.40001
1.40001
1.40001
1.40001
1.40001
1.40001
1.40001
1.40001
1.40001
1.40001
1.40001
1.40001
1.40001
1.40001
1.40001
1.40001
1.40001
1.40001
1.40001
1.40001
1.40001
1.40001
1.40001
1.40001
1.40001
1.40001
1.40001
1.40001
1.40001
1.40001
1.40001
1.40001
1.40001
1.40001
1.40001
1.40001
1.40001
1.40001
1.40001
1.40001
1.40001
1.40001
1.40001
1.40001
1.40001
1.40001
1.40001
1.40001
1.40001
1.40001
1.40001
1.40001
1.40001
1.9507
4.82504
5.4336
5.42672
5.43208
5.44051
5.45333
5.46813
5.48285
5.49689
5.51037
5.52252
5.53216
5.53952
5.5466
5.55567
5.56739
5.58097
5.59478
5.60732
5.61799
5.62696
5.63527
5.64478
5.65537
5.66548
5.67377
5.6799
5.68497
5.69086
5.69859
5.70811
5.7191
5.73149
5.7448
5.75736
5.76577
5.76921
5.76997
5.77052
5.77473
5.78322
5.79639
5.80968
5.82026
5.82588
5.8275
5.82925
5.83339
5.84032
5.84934
5.85816
5.86517
5.86948
5.87163
5.87489
5.88165
5.8909
5.89997
5.90692
5.91178
5.91597
5.92095
5.92713
5.934
5.94062
5.94678
5.95292
5.95905
5.96409
5.96663
5.96641
5.96258
5.95649
5.95153
5.95058
5.95572
5.96536
5.97616
5.9852
5.99074
5.99281
5.99265
5.98946
5.98284
5.97476
5.96677
5.95858
5.95023
5.94332
5.94027
5.9415
5.94597
1.40001
1.40001
1.40001
1.40001
1.40001
1.40001
1.40001
1.40001
1.40001
1.40001
1.40001
1.40001
1.40001
1.40001
1.40001
1.40001
1.40001
1.40001
1.40001
1.40001
1.40001
1.40001
1.40001
1.40001
1.40001
1.40001
1.40001
1.40001
1.40001
1.40001
1.40001
1.40001
1.40001
1.40001
1.40001
1.40001
1.40001
1.40001
1.40001
1.40001
1.40001
1.40001
1.40001
1.40001
1.40001
1.40001
1.40001
1.40001
1.40001
1.40001
1.40001
1.40001
1.40001
1.40001
1.40001
1.40001
1.40001
1.40001
1.40001
1.40001
1.40001
1.40001
1.40001
1.40001
1.40001
1.40001
1.40001
1.40001
1.40001
1.40001
1.40001
1.40001
1.40001
1.40001
1.40001
1.40001
1.40001
1.40001
1.40001
1.40001
1.40001
1.40001
1.40001
1.40001
1.40001
1.40001
1.40001
1.40001
1.40001
1.40001
1.40001
1.40001
1.40001
1.40001
1.40001
1.40001
1.40001
1.40001
1.40001
1.9184
4.79873
5.43412
5.42824
5.43395
5.44198
5.45376
5.46746
5.48145
5.49533
5.50904
5.52148
5.53139
5.53894
5.54601
5.55482
5.56628
5.57975
5.59384
5.60697
5.61831
5.6278
5.6358
5.64427
5.6535
5.66285
5.67165
5.67896
5.68512
5.69141
5.69867
5.70675
5.71619
5.72819
5.74225
5.75659
5.76687
5.77106
5.77089
5.76927
5.77075
5.77743
5.79155
5.80824
5.82185
5.82891
5.82992
5.8298
5.83117
5.83606
5.84521
5.85641
5.86626
5.87186
5.87307
5.87434
5.87888
5.88691
5.8967
5.90612
5.91374
5.91914
5.92315
5.92734
5.9326
5.93857
5.94515
5.95215
5.95868
5.96334
5.96514
5.96434
5.96087
5.95593
5.95199
5.9512
5.95543
5.96407
5.9742
5.98326
5.98945
5.99225
5.99222
5.98846
5.98104
5.97248
5.96462
5.95717
5.94977
5.94339
5.94012
5.94054
5.94409
1.40001
1.40001
1.40001
1.40001
1.40001
1.40001
1.40001
1.40001
1.40001
1.40001
1.40001
1.40001
1.40001
1.40001
1.40001
1.40001
1.40001
1.40001
1.40001
1.40001
1.40001
1.40001
1.40001
1.40001
1.40001
1.40001
1.40001
1.40001
1.40001
1.40001
1.40001
1.40001
1.40001
1.40001
1.40001
1.40001
1.40001
1.40001
1.40001
1.40001
1.40001
1.40001
1.40001
1.40001
1.40001
1.40001
1.40001
1.40001
1.40001
1.40001
1.40001
1.40001
1.40001
1.40001
1.40001
1.40001
1.40001
1.40001
1.40001
1.40001
1.40001
1.40001
1.40001
1.40001
1.40001
1.40001
1.40001
1.40001
1.40001
1.40001
1.40001
1.40001
1.40001
1.40001
1.40001
1.40001
1.40001
1.40001
1.40001
1.40001
1.40001
1.40001
1.40001
1.40001
1.40001
1.40001
1.40001
1.40001
1.40001
1.40001
1.40001
1.40001
1.40001
1.40001
1.40001
1.40001
1.40001
1.40001
1.40001
1.88206
4.76566
5.43372
5.42954
5.43577
5.4435
5.4543
5.46679
5.48003
5.49379
5.50769
5.52041
5.53069
5.53871
5.54596
5.55445
5.56524
5.57811
5.59207
5.60579
5.61813
5.62839
5.63669
5.64468
5.65277
5.6605
5.66823
5.67564
5.68277
5.69039
5.69861
5.70687
5.71602
5.72776
5.74118
5.75473
5.76492
5.76948
5.76934
5.76724
5.76836
5.77461
5.78889
5.80702
5.82201
5.82997
5.83077
5.82956
5.82935
5.83295
5.84216
5.8549
5.86657
5.8729
5.87342
5.87326
5.87604
5.88345
5.89428
5.90625
5.91614
5.92183
5.92446
5.92664
5.9304
5.9363
5.94377
5.95178
5.95834
5.96207
5.9628
5.96148
5.95881
5.95541
5.9526
5.95194
5.95511
5.96261
5.97201
5.98121
5.98811
5.99151
5.99125
5.98672
5.9787
5.97009
5.96277
5.95625
5.94961
5.94333
5.93947
5.9389
5.94157
1.40001
1.40001
1.40001
1.40001
1.40001
1.40001
1.40001
1.40001
1.40001
1.40001
1.40001
1.40001
1.40001
1.40001
1.40001
1.40001
1.40001
1.40001
1.40001
1.40001
1.40001
1.40001
1.40001
1.40001
1.40001
1.40001
1.40001
1.40001
1.40001
1.40001
1.40001
1.40001
1.40001
1.40001
1.40001
1.40001
1.40001
1.40001
1.40001
1.40001
1.40001
1.40001
1.40001
1.40001
1.40001
1.40001
1.40001
1.40001
1.40001
1.40001
1.40001
1.40001
1.40001
1.40001
1.40001
1.40001
1.40001
1.40001
1.40001
1.40001
1.40001
1.40001
1.40001
1.40001
1.40001
1.40001
1.40001
1.40001
1.40001
1.40001
1.40001
1.40001
1.40001
1.40001
1.40001
1.40001
1.40001
1.40001
1.40001
1.40001
1.40001
1.40001
1.40001
1.40001
1.40001
1.40001
1.40001
1.40001
1.40001
1.40001
1.40001
1.40001
1.40001
1.40001
1.40001
1.40001
1.40001
1.40001
1.40001
1.8423
4.72692
5.43197
5.43023
5.43665
5.44433
5.45459
5.46626
5.47901
5.49265
5.50657
5.51939
5.53003
5.53863
5.54623
5.55453
5.56458
5.57651
5.58979
5.60353
5.61669
5.62806
5.63737
5.64578
5.65331
5.65969
5.6655
5.67164
5.67862
5.68741
5.69751
5.70768
5.71786
5.72923
5.74084
5.75173
5.76054
5.76509
5.76584
5.76558
5.76832
5.77509
5.78825
5.80522
5.81998
5.8284
5.82988
5.8289
5.82831
5.83138
5.84032
5.85341
5.86568
5.87245
5.87271
5.87166
5.87342
5.88057
5.89272
5.90709
5.91853
5.92378
5.92486
5.92497
5.92752
5.93382
5.94263
5.95176
5.95807
5.96037
5.9597
5.95776
5.95622
5.95474
5.95323
5.95286
5.95494
5.96104
5.9696
5.97899
5.98662
5.99043
5.98966
5.98431
5.97596
5.96778
5.96134
5.95585
5.94973
5.94315
5.93827
5.93659
5.93845
1.40001
1.40001
1.40001
1.40001
1.40001
1.40001
1.40001
1.40001
1.40001
1.40001
1.40001
1.40001
1.40001
1.40001
1.40001
1.40001
1.40001
1.40001
1.40001
1.40001
1.40001
1.40001
1.40001
1.40001
1.40001
1.40001
1.40001
1.40001
1.40001
1.40001
1.40001
1.40001
1.40001
1.40001
1.40001
1.40001
1.40001
1.40001
1.40001
1.40001
1.40001
1.40001
1.40001
1.40001
1.40001
1.40001
1.40001
1.40001
1.40001
1.40001
1.40001
1.40001
1.40001
1.40001
1.40001
1.40001
1.40001
1.40001
1.40001
1.40001
1.40001
1.40001
1.40001
1.40001
1.40001
1.40001
1.40001
1.40001
1.40001
1.40001
1.40001
1.40001
1.40001
1.40001
1.40001
1.40001
1.40001
1.40001
1.40001
1.40001
1.40001
1.40001
1.40001
1.40001
1.40001
1.40001
1.40001
1.40001
1.40001
1.40001
1.40001
1.40001
1.40001
1.40001
1.40001
1.40001
1.40001
1.40001
1.40001
1.79948
4.68196
5.42867
5.42923
5.43652
5.44472
5.45497
5.46626
5.47878
5.49225
5.50593
5.5186
5.52946
5.53853
5.54654
5.55477
5.56426
5.57518
5.58741
5.60053
5.61373
5.62624
5.63725
5.6469
5.65458
5.66002
5.66383
5.66799
5.67421
5.68397
5.69625
5.70891
5.72054
5.7311
5.7401
5.74731
5.75411
5.7588
5.76176
5.76494
5.77006
5.77735
5.78851
5.80291
5.81639
5.825
5.82788
5.82832
5.82836
5.8312
5.83935
5.8518
5.86394
5.87092
5.87115
5.8698
5.87113
5.87839
5.89198
5.90807
5.92007
5.92471
5.9243
5.9227
5.92438
5.93126
5.94169
5.95188
5.95762
5.95831
5.95608
5.95355
5.95303
5.95354
5.95375
5.95379
5.95491
5.95951
5.96716
5.97661
5.98478
5.98872
5.98736
5.98138
5.97304
5.96567
5.96034
5.95583
5.95005
5.94283
5.93666
5.93371
5.93474
1.40001
1.40001
1.40001
1.40001
1.40001
1.40001
1.40001
1.40001
1.40001
1.40001
1.40001
1.40001
1.40001
1.40001
1.40001
1.40001
1.40001
1.40001
1.40001
1.40001
1.40001
1.40001
1.40001
1.40001
1.40001
1.40001
1.40001
1.40001
1.40001
1.40001
1.40001
1.40001
1.40001
1.40001
1.40001
1.40001
1.40001
1.40001
1.40001
1.40001
1.40001
1.40001
1.40001
1.40001
1.40001
1.40001
1.40001
1.40001
1.40001
1.40001
1.40001
1.40001
1.40001
1.40001
1.40001
1.40001
1.40001
1.40001
1.40001
1.40001
1.40001
1.40001
1.40001
1.40001
1.40001
1.40001
1.40001
1.40001
1.40001
1.40001
1.40001
1.40001
1.40001
1.40001
1.40001
1.40001
1.40001
1.40001
1.40001
1.40001
1.40001
1.40001
1.40001
1.40001
1.40001
1.40001
1.40001
1.40001
1.40001
1.40001
1.40001
1.40001
1.40001
1.40001
1.40001
1.40001
1.40001
1.40001
1.40001
1.75314
4.62836
5.42474
5.42833
5.43656
5.44485
5.45505
5.46628
5.47879
5.49214
5.50556
5.51796
5.52885
5.5382
5.5464
5.55455
5.56366
5.57381
5.58504
5.59722
5.6101
5.62321
5.63581
5.64705
5.6558
5.66101
5.66333
5.66549
5.67051
5.68065
5.69493
5.70989
5.7228
5.73213
5.73825
5.74229
5.74729
5.75245
5.75838
5.76541
5.77287
5.78011
5.78864
5.79965
5.81129
5.82019
5.82531
5.82788
5.82921
5.83203
5.83879
5.84962
5.86104
5.86814
5.86898
5.868
5.86956
5.87724
5.89172
5.90842
5.92036
5.92459
5.92294
5.92009
5.92125
5.92883
5.94077
5.95174
5.95703
5.95611
5.95228
5.94919
5.94939
5.95183
5.95391
5.95434
5.95492
5.95823
5.96499
5.97417
5.98246
5.98628
5.9844
5.97814
5.97018
5.96386
5.95967
5.956
5.95035
5.94227
5.93463
5.93026
5.93041
1.40001
1.40001
1.40001
1.40001
1.40001
1.40001
1.40001
1.40001
1.40001
1.40001
1.40001
1.40001
1.40001
1.40001
1.40001
1.40001
1.40001
1.40001
1.40001
1.40001
1.40001
1.40001
1.40001
1.40001
1.40001
1.40001
1.40001
1.40001
1.40001
1.40001
1.40001
1.40001
1.40001
1.40001
1.40001
1.40001
1.40001
1.40001
1.40001
1.40001
1.40001
1.40001
1.40001
1.40001
1.40001
1.40001
1.40001
1.40001
1.40001
1.40001
1.40001
1.40001
1.40001
1.40001
1.40001
1.40001
1.40001
1.40001
1.40001
1.40001
1.40001
1.40001
1.40001
1.40001
1.40001
1.40001
1.40001
1.40001
1.40001
1.40001
1.40001
1.40001
1.40001
1.40001
1.40001
1.40001
1.40001
1.40001
1.40001
1.40001
1.40001
1.40001
1.40001
1.40001
1.40001
1.40001
1.40001
1.40001
1.40001
1.40001
1.40001
1.40001
1.40001
1.40001
1.40001
1.40001
1.40001
1.40001
1.40001
1.70436
4.56536
5.42012
5.42673
5.43602
5.44502
5.45551
5.46682
5.47935
5.49256
5.50555
5.51756
5.52834
5.53772
5.54602
5.55399
5.56264
5.57217
5.58261
5.59403
5.60642
5.61977
5.6335
5.64625
5.65619
5.66185
5.66346
5.66417
5.66815
5.6779
5.69327
5.70987
5.7235
5.73178
5.73559
5.7375
5.74154
5.74763
5.75639
5.76665
5.77562
5.78217
5.7881
5.79578
5.80551
5.81497
5.82258
5.82756
5.83041
5.83328
5.83832
5.84692
5.85693
5.86415
5.8664
5.86652
5.86894
5.877
5.89146
5.90781
5.91927
5.92306
5.9208
5.91737
5.91841
5.92664
5.93968
5.95102
5.9558
5.9537
5.94856
5.94495
5.94563
5.94962
5.95329
5.95431
5.95475
5.95729
5.96321
5.97173
5.9796
5.98303
5.98078
5.97473
5.96759
5.96238
5.95927
5.95621
5.95048
5.94145
5.93233
5.92643
5.92567
1.40001
1.40001
1.40001
1.40001
1.40001
1.40001
1.40001
1.40001
1.40001
1.40001
1.40001
1.40001
1.40001
1.40001
1.40001
1.40001
1.40001
1.40001
1.40001
1.40001
1.40001
1.40001
1.40001
1.40001
1.40001
1.40001
1.40001
1.40001
1.40001
1.40001
1.40001
1.40001
1.40001
1.40001
1.40001
1.40001
1.40001
1.40001
1.40001
1.40001
1.40001
1.40001
1.40001
1.40001
1.40001
1.40001
1.40001
1.40001
1.40001
1.40001
1.40001
1.40001
1.40001
1.40001
1.40001
1.40001
1.40001
1.40001
1.40001
1.40001
1.40001
1.40001
1.40001
1.40001
1.40001
1.40001
1.40001
1.40001
1.40001
1.40001
1.40001
1.40001
1.40001
1.40001
1.40001
1.40001
1.40001
1.40001
1.40001
1.40001
1.40001
1.40001
1.40001
1.40001
1.40001
1.40001
1.40001
1.40001
1.40001
1.40001
1.40001
1.40001
1.40001
1.40001
1.40001
1.40001
1.40001
1.40001
1.40001
1.6538
4.4922
5.41662
5.4255
5.43538
5.44524
5.45615
5.46759
5.48001
5.49307
5.50575
5.51733
5.5277
5.53713
5.54563
5.55339
5.5614
5.57033
5.58019
5.59103
5.60322
5.61673
5.63096
5.64468
5.65569
5.66204
5.66368
5.66376
5.66694
5.67572
5.69069
5.70778
5.72186
5.72982
5.73279
5.73393
5.73763
5.74472
5.75553
5.76768
5.77726
5.78296
5.78671
5.7917
5.79993
5.81013
5.81998
5.82731
5.83156
5.83426
5.83754
5.84365
5.85188
5.85925
5.86346
5.86565
5.86931
5.87751
5.89105
5.90618
5.91677
5.92021
5.91801
5.91486
5.91628
5.92499
5.9384
5.94952
5.95366
5.95084
5.94505
5.94121
5.9421
5.94691
5.95175
5.95357
5.95433
5.95668
5.96188
5.96943
5.97629
5.97902
5.97665
5.97127
5.96535
5.9613
5.95904
5.95627
5.95014
5.94014
5.92964
5.92232
5.92083
1.40001
1.40001
1.40001
1.40001
1.40001
1.40001
1.40001
1.40001
1.40001
1.40001
1.40001
1.40001
1.40001
1.40001
1.40001
1.40001
1.40001
1.40001
1.40001
1.40001
1.40001
1.40001
1.40001
1.40001
1.40001
1.40001
1.40001
1.40001
1.40001
1.40001
1.40001
1.40001
1.40001
1.40001
1.40001
1.40001
1.40001
1.40001
1.40001
1.40001
1.40001
1.40001
1.40001
1.40001
1.40001
1.40001
1.40001
1.40001
1.40001
1.40001
1.40001
1.40001
1.40001
1.40001
1.40001
1.40001
1.40001
1.40001
1.40001
1.40001
1.40001
1.40001
1.40001
1.40001
1.40001
1.40001
1.40001
1.40001
1.40001
1.40001
1.40001
1.40001
1.40001
1.40001
1.40001
1.40001
1.40001
1.40001
1.40001
1.40001
1.40001
1.40001
1.40001
1.40001
1.40001
1.40001
1.40001
1.40001
1.40001
1.40001
1.40001
1.40001
1.40001
1.40001
1.40001
1.40001
1.40001
1.40001
1.40001
1.59975
4.40908
5.41765
5.42451
5.43449
5.44555
5.4572
5.46899
5.48109
5.49336
5.50507
5.51596
5.52626
5.53611
5.54481
5.55256
5.56032
5.56865
5.57772
5.58799
5.60015
5.61397
5.62847
5.64255
5.65423
5.66137
5.66361
5.66377
5.66633
5.67385
5.68768
5.70431
5.71864
5.72703
5.73041
5.73189
5.7357
5.74339
5.75509
5.7678
5.77751
5.78259
5.7848
5.78797
5.79522
5.806
5.81743
5.82662
5.83201
5.83453
5.83622
5.84002
5.84664
5.85427
5.86056
5.8651
5.87014
5.87825
5.89027
5.90349
5.91294
5.91618
5.91472
5.91267
5.91491
5.9238
5.93669
5.94689
5.95037
5.94739
5.94175
5.93812
5.93906
5.94392
5.94926
5.95205
5.95365
5.95627
5.96095
5.9673
5.97266
5.97443
5.97218
5.96777
5.9634
5.96057
5.95885
5.95591
5.94908
5.93805
5.92635
5.91798
5.91616
1.40001
1.40001
1.40001
1.40001
1.40001
1.40001
1.40001
1.40001
1.40001
1.40001
1.40001
1.40001
1.40001
1.40001
1.40001
1.40001
1.40001
1.40001
1.40001
1.40001
1.40001
1.40001
1.40001
1.40001
1.40001
1.40001
1.40001
1.40001
1.40001
1.40001
1.40001
1.40001
1.40001
1.40001
1.40001
1.40001
1.40001
1.40001
1.40001
1.40001
1.40001
1.40001
1.40001
1.40001
1.40001
1.40001
1.40001
1.40001
1.40001
1.40001
1.40001
1.40001
1.40001
1.40001
1.40001
1.40001
1.40001
1.40001
1.40001
1.40001
1.40001
1.40001
1.40001
1.40001
1.40001
1.40001
1.40001
1.40001
1.40001
1.40001
1.40001
1.40001
1.40001
1.40001
1.40001
1.40001
1.40001
1.40001
1.40001
1.40001
1.40001
1.40001
1.40001
1.40001
1.40001
1.40001
1.40001
1.40001
1.40001
1.40001
1.40001
1.40001
1.40001
1.40001
1.40001
1.40001
1.40001
1.40001
1.40001
1.54425
4.31652
5.42181
5.42466
5.43302
5.44464
5.45671
5.46887
5.48075
5.49243
5.50339
5.5138
5.52437
5.53489
5.54436
5.5526
5.5602
5.56781
5.57597
5.58547
5.59723
5.61092
5.62532
5.63942
5.65151
5.6595
5.66283
5.66359
5.6658
5.67202
5.68431
5.70014
5.7147
5.72419
5.72859
5.73089
5.73484
5.74248
5.75417
5.76691
5.77664
5.78141
5.78295
5.78516
5.79179
5.80269
5.81477
5.82495
5.83111
5.83352
5.83408
5.83625
5.84181
5.84987
5.85796
5.86459
5.87073
5.87867
5.88897
5.89993
5.90815
5.91149
5.91135
5.91104
5.9143
5.92289
5.93438
5.94321
5.94613
5.94348
5.93869
5.93567
5.93655
5.94086
5.94608
5.94975
5.95252
5.95574
5.96002
5.96509
5.96874
5.96948
5.96751
5.96428
5.96163
5.96006
5.95861
5.95502
5.94723
5.93516
5.92256
5.91366
5.912
1.40001
1.40001
1.40001
1.40001
1.40001
1.40001
1.40001
1.40001
1.40001
1.40001
1.40001
1.40001
1.40001
1.40001
1.40001
1.40001
1.40001
1.40001
1.40001
1.40001
1.40001
1.40001
1.40001
1.40001
1.40001
1.40001
1.40001
1.40001
1.40001
1.40001
1.40001
1.40001
1.40001
1.40001
1.40001
1.40001
1.40001
1.40001
1.40001
1.40001
1.40001
1.40001
1.40001
1.40001
1.40001
1.40001
1.40001
1.40001
1.40001
1.40001
1.40001
1.40001
1.40001
1.40001
1.40001
1.40001
1.40001
1.40001
1.40001
1.40001
1.40001
1.40001
1.40001
1.40001
1.40001
1.40001
1.40001
1.40001
1.40001
1.40001
1.40001
1.40001
1.40001
1.40001
1.40001
1.40001
1.40001
1.40001
1.40001
1.40001
1.40001
1.40001
1.40001
1.40001
1.40001
1.40001
1.40001
1.40001
1.40001
1.40001
1.40001
1.40001
1.40001
1.40001
1.40001
1.40001
1.40001
1.40001
1.40001
1.48102
4.21647
5.42407
5.42492
5.43237
5.44476
5.45745
5.4702
5.48187
5.49222
5.50161
5.51079
5.52066
5.53105
5.54092
5.54994
5.55824
5.56607
5.57396
5.58295
5.59415
5.60739
5.62146
5.63557
5.64813
5.65708
5.66153
5.66303
5.66497
5.67017
5.68121
5.69639
5.71125
5.72193
5.7274
5.73026
5.73409
5.74117
5.75224
5.76476
5.77462
5.77974
5.78156
5.7836
5.78975
5.80017
5.81198
5.82229
5.82871
5.83104
5.8312
5.83272
5.83801
5.84659
5.85583
5.86376
5.87056
5.87812
5.88676
5.89558
5.90271
5.9068
5.90842
5.91001
5.91407
5.9217
5.9312
5.93855
5.94115
5.93925
5.93571
5.9335
5.93427
5.93785
5.94267
5.94707
5.95098
5.95484
5.95884
5.96263
5.9647
5.96449
5.9628
5.96092
5.95995
5.95956
5.95817
5.9536
5.94452
5.93146
5.9183
5.90947
5.90847
1.40001
1.40001
1.40001
1.40001
1.40001
1.40001
1.40001
1.40001
1.40001
1.40001
1.40001
1.40001
1.40001
1.40001
1.40001
1.40001
1.40001
1.40001
1.40001
1.40001
1.40001
1.40001
1.40001
1.40001
1.40001
1.40001
1.40001
1.40001
1.40001
1.40001
1.40001
1.40001
1.40001
1.40001
1.40001
1.40001
1.40001
1.40001
1.40001
1.40001
1.40001
1.40001
1.40001
1.40001
1.40001
1.40001
1.40001
1.40001
1.40001
1.40001
1.40001
1.40001
1.40001
1.40001
1.40001
1.40001
1.40001
1.40001
1.40001
1.40001
1.40001
1.40001
1.40001
1.40001
1.40001
1.40001
1.40001
1.40001
1.40001
1.40001
1.40001
1.40001
1.40001
1.40001
1.40001
1.40001
1.40001
1.40001
1.40001
1.40001
1.40001
1.40001
1.40001
1.40001
1.40001
1.40001
1.40001
1.40001
1.40001
1.40001
1.40001
1.40001
1.40001
1.40001
1.40001
1.40001
1.40001
1.40001
1.40001
1.41287
4.10233
5.41192
5.41975
5.42767
5.44133
5.4548
5.46836
5.48058
5.49092
5.49969
5.50783
5.51679
5.52685
5.53726
5.54746
5.55693
5.56544
5.57329
5.58159
5.59167
5.60384
5.61723
5.63121
5.6442
5.65406
5.65959
5.66178
5.66362
5.66822
5.67855
5.69347
5.70874
5.72031
5.72655
5.72949
5.73278
5.739
5.74914
5.76136
5.77171
5.77792
5.78074
5.78315
5.78888
5.7983
5.809
5.8185
5.8247
5.8272
5.82771
5.82965
5.83549
5.8447
5.85443
5.8626
5.8693
5.87603
5.88333
5.89083
5.89763
5.90285
5.90629
5.90928
5.91351
5.91982
5.92729
5.93327
5.93582
5.93503
5.93272
5.93122
5.93183
5.93478
5.93931
5.94426
5.94906
5.95344
5.95713
5.95975
5.96052
5.95958
5.95828
5.95767
5.9582
5.95891
5.95739
5.95156
5.94095
5.92696
5.91365
5.90544
5.90542
1.40001
1.40001
1.40001
1.40001
1.40001
1.40001
1.40001
1.40001
1.40001
1.40001
1.40001
1.40001
1.40001
1.40001
1.40001
1.40001
1.40001
1.40001
1.40001
1.40001
1.40001
1.40001
1.40001
1.40001
1.40001
1.40001
1.40001
1.40001
1.40001
1.40001
1.40001
1.40001
1.40001
1.40001
1.40001
1.40001
1.40001
1.40001
1.40001
1.40001
1.40001
1.40001
1.40001
1.40001
1.40001
1.40001
1.40001
1.40001
1.40001
1.40001
1.40001
1.40001
1.40001
1.40001
1.40001
1.40001
1.40001
1.40001
1.40001
1.40001
1.40001
1.40001
1.40001
1.40001
1.40001
1.40001
1.40001
1.40001
1.40001
1.40001
1.40001
1.40001
1.40001
1.40001
1.40001
1.40001
1.40001
1.40001
1.40001
1.40001
1.40001
1.40001
1.40001
1.40001
1.40001
1.40001
1.40001
1.40001
1.40001
1.40001
1.40001
1.40001
1.40001
1.40001
1.40001
1.40001
1.40001
1.40001
1.40001
1.40026
3.94666
5.39477
5.41387
5.42293
5.43809
5.45236
5.4667
5.47956
5.49014
5.49832
5.50526
5.513
5.52245
5.53315
5.54454
5.55552
5.56513
5.57323
5.58071
5.58921
5.59992
5.61254
5.62653
5.64015
5.65096
5.6575
5.66026
5.66214
5.66653
5.67652
5.69135
5.70693
5.71906
5.72554
5.7281
5.73071
5.73607
5.74536
5.75744
5.76858
5.7762
5.78037
5.78338
5.78865
5.79677
5.8058
5.81386
5.81951
5.82238
5.82383
5.82705
5.83407
5.84395
5.85369
5.86126
5.86689
5.87232
5.87861
5.88582
5.89339
5.90016
5.9051
5.90864
5.91224
5.9169
5.92252
5.92769
5.93071
5.93109
5.92975
5.92854
5.92888
5.93145
5.93608
5.94163
5.94703
5.95159
5.95484
5.95648
5.9563
5.95492
5.95391
5.95435
5.95629
5.95798
5.95617
5.94891
5.93665
5.92182
5.90873
5.90159
5.90275
1.40001
1.40001
1.40001
1.40001
1.40001
1.40001
1.40001
1.40001
1.40001
1.40001
1.40001
1.40001
1.40001
1.40001
1.40001
1.40001
1.40001
1.40001
1.40001
1.40001
1.40001
1.40001
1.40001
1.40001
1.40001
1.40001
1.40001
1.40001
1.40001
1.40001
1.40001
1.40001
1.40001
1.40001
1.40001
1.40001
1.40001
1.40001
1.40001
1.40001
1.40001
1.40001
1.40001
1.40001
1.40001
1.40001
1.40001
1.40001
1.40001
1.40001
1.40001
1.40001
1.40001
1.40001
1.40001
1.40001
1.40001
1.40001
1.40001
1.40001
1.40001
1.40001
1.40001
1.40001
1.40001
1.40001
1.40001
1.40001
1.40001
1.40001
1.40001
1.40001
1.40001
1.40001
1.40001
1.40001
1.40001
1.40001
1.40001
1.40001
1.40001
1.40001
1.40001
1.40001
1.40001
1.40001
1.40001
1.40001
1.40001
1.40001
1.40001
1.40001
1.40001
1.40001
1.40001
1.40001
1.40001
1.40001
1.40001
1.40001
3.77239
5.37811
5.40795
5.41751
5.43403
5.44923
5.46453
5.47826
5.4892
5.49714
5.50335
5.50987
5.51834
5.52906
5.54149
5.55407
5.56499
5.57342
5.58005
5.58683
5.59603
5.60797
5.6221
5.63641
5.64812
5.65545
5.65866
5.6607
5.66509
5.67485
5.68949
5.70507
5.71733
5.72374
5.72591
5.72797
5.73279
5.74159
5.75372
5.76558
5.77437
5.77974
5.78339
5.78817
5.79499
5.80235
5.80897
5.81401
5.81724
5.81987
5.82476
5.83328
5.84387
5.85329
5.85963
5.86351
5.86737
5.87292
5.88075
5.89011
5.89878
5.90464
5.90766
5.90977
5.91262
5.91689
5.92202
5.92612
5.92758
5.92663
5.92531
5.92528
5.92778
5.93296
5.93924
5.945
5.94932
5.95192
5.95283
5.95213
5.95052
5.9497
5.95094
5.9541
5.95657
5.95442
5.94576
5.93183
5.91625
5.90364
5.89786
5.90026
1.40001
1.40001
1.40001
1.40001
1.40001
1.40001
1.40001
1.40001
1.40001
1.40001
1.40001
1.40001
1.40001
1.40001
1.40001
1.40001
1.40001
1.40001
1.40001
1.40001
1.40001
1.40001
1.40001
1.40001
1.40001
1.40001
1.40001
1.40001
1.40001
1.40001
1.40001
1.40001
1.40001
1.40001
1.40001
1.40001
1.40001
1.40001
1.40001
1.40001
1.40001
1.40001
1.40001
1.40001
1.40001
1.40001
1.40001
1.40001
1.40001
1.40001
1.40001
1.40001
1.40001
1.40001
1.40001
1.40001
1.40001
1.40001
1.40001
1.40001
1.40001
1.40001
1.40001
1.40001
1.40001
1.40001
1.40001
1.40001
1.40001
1.40001
1.40001
1.40001
1.40001
1.40001
1.40001
1.40001
1.40001
1.40001
1.40001
1.40001
1.40001
1.40001
1.40001
1.40001
1.40001
1.40001
1.40001
1.40001
1.40001
1.40001
1.40001
1.40001
1.40001
1.40001
1.40001
1.40001
1.40001
1.40001
1.40001
1.40001
3.58762
5.36108
5.40343
5.41281
5.43006
5.44605
5.46225
5.47691
5.48847
5.49655
5.5022
5.5074
5.51468
5.52518
5.53834
5.55224
5.56442
5.57329
5.57921
5.58447
5.5924
5.60391
5.61824
5.6332
5.64564
5.65361
5.65725
5.65951
5.66398
5.67346
5.68771
5.70292
5.71487
5.72099
5.72287
5.72472
5.7295
5.73838
5.7508
5.76318
5.77262
5.77867
5.78268
5.78691
5.79255
5.79863
5.80427
5.8089
5.81242
5.81602
5.82241
5.83242
5.84381
5.85284
5.85756
5.85946
5.86168
5.86671
5.87595
5.88778
5.89824
5.90429
5.90595
5.90607
5.90732
5.91087
5.91668
5.92226
5.92462
5.92349
5.92152
5.92103
5.92375
5.92977
5.93683
5.94269
5.94649
5.94838
5.94879
5.94787
5.94627
5.94564
5.94743
5.95153
5.95458
5.95212
5.94223
5.92673
5.91045
5.89845
5.89412
5.89765
1.40001
1.40001
1.40001
1.40001
1.40001
1.40001
1.40001
1.40001
1.40001
1.40001
1.40001
1.40001
1.40001
1.40001
1.40001
1.40001
1.40001
1.40001
1.40001
1.40001
1.40001
1.40001
1.40001
1.40001
1.40001
1.40001
1.40001
1.40001
1.40001
1.40001
1.40001
1.40001
1.40001
1.40001
1.40001
1.40001
1.40001
1.40001
1.40001
1.40001