/*--------------------------------*- C++ -*----------------------------------*\
  =========                 |
  \\      /  F ield         | OpenFOAM: The Open Source CFD Toolbox
   \\    /   O peration     | Website:  https://openfoam.org
    \\  /    A nd           | Version:  7
     \\/     M anipulation  |
\*---------------------------------------------------------------------------*/
FoamFile
{
    version     2.0;
    format      ascii;
    class       volScalarField;
    location    "2.3";
    object      T;
}
// * * * * * * * * * * * * * * * * * * * * * * * * * * * * * * * * * * * * * //

dimensions      [0 0 0 1 0 0 0];

internalField   nonuniform List<scalar> 
258048
(
1
1
1
1
1
1
1
1
1
1
1
1
1
1
1
1
1
1
1
1
1
1
1
1
1
1
1
1
1
1
1
1
1
1
1
1
1
1
1
1
1
1
1
1
1
1
1
1
1
1
1
1
1
1
1
1
1
1
1
1
1
1
1
1
1
1
1
1
1
1
1
1
1
1
1
1
1
1
1
1
1
1
1
1
1
1
1
1
1
1
1
1
1
1
1
1
1
1
1
1.48181
2.54048
2.68498
2.69207
2.699
2.70374
2.70669
2.70805
2.70847
2.70857
2.70874
2.70944
2.71128
2.71449
2.71844
2.7222
2.72527
2.72754
2.72906
2.72998
2.73053
2.731
2.73168
2.73277
2.73446
2.73677
2.73947
2.74217
2.7445
2.74658
2.74861
2.75077
2.75285
2.75415
2.75462
2.75501
2.75582
2.75842
2.76289
2.76798
2.77228
2.77458
2.77437
2.77212
2.76904
2.7677
2.76896
2.7732
2.77925
2.78492
2.78833
2.7891
2.78816
2.78709
2.7873
2.78915
2.79194
2.79427
2.79519
2.79455
2.7928
2.79136
2.79127
2.79261
2.79488
2.79692
2.79834
2.79976
2.80171
2.80414
2.8068
2.80842
2.8085
2.80787
2.80652
2.80589
2.80699
2.80916
2.81183
2.81418
2.81581
2.81667
2.8171
2.81728
2.81771
2.81887
2.82082
2.82402
2.82949
2.83708
2.84516
2.85133
2.8544
1
1
1
1
1
1
1
1
1
1
1
1
1
1
1
1
1
1
1
1
1
1
1
1
1
1
1
1
1
1
1
1
1
1
1
1
1
1
1
1
1
1
1
1
1
1
1
1
1
1
1
1
1
1
1
1
1
1
1
1
1
1
1
1
1
1
1
1
1
1
1
1
1
1
1
1
1
1
1
1
1
1
1
1
1
1
1
1
1
1
1
1
1
1
1
1
1
1
1
1.47792
2.53905
2.68541
2.69254
2.69915
2.70365
2.70652
2.70796
2.70842
2.70851
2.70867
2.70934
2.71115
2.71432
2.71831
2.72218
2.72534
2.72766
2.72919
2.73005
2.73046
2.7308
2.73147
2.73266
2.73445
2.73685
2.73967
2.7425
2.74493
2.74691
2.74866
2.75045
2.75217
2.75336
2.75406
2.75495
2.75637
2.75915
2.76335
2.76797
2.77182
2.77389
2.77386
2.77216
2.76955
2.76837
2.76943
2.77323
2.77891
2.78447
2.78807
2.78915
2.78845
2.78754
2.78763
2.78915
2.79169
2.794
2.79504
2.79455
2.79303
2.79172
2.79159
2.79274
2.79481
2.79673
2.79821
2.79975
2.80176
2.80421
2.8068
2.80836
2.80842
2.80783
2.80656
2.80598
2.80704
2.80912
2.81169
2.81401
2.8157
2.81667
2.81716
2.81733
2.8177
2.81875
2.82062
2.82386
2.82943
2.83713
2.84523
2.85134
2.85436
1
1
1
1
1
1
1
1
1
1
1
1
1
1
1
1
1
1
1
1
1
1
1
1
1
1
1
1
1
1
1
1
1
1
1
1
1
1
1
1
1
1
1
1
1
1
1
1
1
1
1
1
1
1
1
1
1
1
1
1
1
1
1
1
1
1
1
1
1
1
1
1
1
1
1
1
1
1
1
1
1
1
1
1
1
1
1
1
1
1
1
1
1
1
1
1
1
1
1
1.46977
2.53699
2.68584
2.69283
2.69901
2.70327
2.7061
2.7076
2.70814
2.70829
2.70848
2.70918
2.71099
2.71412
2.7181
2.72205
2.72531
2.72771
2.72929
2.73014
2.73048
2.73064
2.73115
2.73237
2.7343
2.73683
2.73983
2.74288
2.74551
2.74753
2.74906
2.75035
2.75148
2.75234
2.7531
2.7544
2.75668
2.75995
2.76414
2.76826
2.77137
2.77286
2.77275
2.77153
2.76986
2.76921
2.77025
2.77356
2.77858
2.78367
2.78727
2.78867
2.78846
2.78798
2.78809
2.78924
2.79131
2.79336
2.7944
2.7941
2.79295
2.79195
2.79188
2.79286
2.79462
2.79633
2.79781
2.79952
2.80169
2.80423
2.80682
2.80832
2.80834
2.80775
2.80656
2.80604
2.80708
2.80906
2.81149
2.81374
2.81546
2.81659
2.81719
2.81737
2.81767
2.81855
2.82028
2.82355
2.8293
2.83719
2.84533
2.85135
2.85428
1
1
1
1
1
1
1
1
1
1
1
1
1
1
1
1
1
1
1
1
1
1
1
1
1
1
1
1
1
1
1
1
1
1
1
1
1
1
1
1
1
1
1
1
1
1
1
1
1
1
1
1
1
1
1
1
1
1
1
1
1
1
1
1
1
1
1
1
1
1
1
1
1
1
1
1
1
1
1
1
1
1
1
1
1
1
1
1
1
1
1
1
1
1
1
1
1
1
1
1.4566
2.53313
2.68603
2.69265
2.69865
2.70282
2.70562
2.70713
2.70773
2.70796
2.70825
2.70905
2.71086
2.71391
2.7178
2.72175
2.7251
2.72761
2.72928
2.7302
2.73053
2.73059
2.73088
2.73195
2.73395
2.7367
2.73993
2.74327
2.74612
2.74813
2.7494
2.75017
2.75069
2.75124
2.75221
2.75421
2.75727
2.76091
2.7647
2.7681
2.77056
2.77165
2.77171
2.77116
2.77051
2.77041
2.77123
2.77385
2.77815
2.78278
2.78639
2.78827
2.78869
2.78857
2.78862
2.78934
2.79091
2.79271
2.79377
2.79377
2.7931
2.7924
2.7923
2.79297
2.79433
2.79584
2.79738
2.79927
2.80163
2.80427
2.80682
2.80827
2.80827
2.80772
2.80662
2.80615
2.8071
2.80893
2.81119
2.81339
2.8152
2.8165
2.81722
2.81738
2.81759
2.81828
2.81987
2.82322
2.8292
2.83729
2.84546
2.85135
2.85416
1
1
1
1
1
1
1
1
1
1
1
1
1
1
1
1
1
1
1
1
1
1
1
1
1
1
1
1
1
1
1
1
1
1
1
1
1
1
1
1
1
1
1
1
1
1
1
1
1
1
1
1
1
1
1
1
1
1
1
1
1
1
1
1
1
1
1
1
1
1
1
1
1
1
1
1
1
1
1
1
1
1
1
1
1
1
1
1
1
1
1
1
1
1
1
1
1
1
1
1.4398
2.52771
2.68628
2.69232
2.698
2.70203
2.7048
2.70636
2.70709
2.70752
2.70804
2.70902
2.71087
2.71379
2.71746
2.72127
2.7246
2.72723
2.72908
2.73016
2.7306
2.73066
2.73078
2.73153
2.73337
2.73623
2.73977
2.74344
2.74656
2.74863
2.74971
2.7501
2.75012
2.75036
2.75159
2.75422
2.75784
2.76166
2.76507
2.76768
2.76961
2.7704
2.77075
2.77088
2.77121
2.77168
2.77234
2.77417
2.77773
2.78187
2.78543
2.78777
2.78883
2.7891
2.78912
2.78943
2.79046
2.79192
2.7931
2.79349
2.79325
2.79284
2.79266
2.79299
2.79392
2.79525
2.7969
2.79902
2.80157
2.80425
2.80674
2.80816
2.80821
2.80769
2.80671
2.80627
2.80708
2.8087
2.81081
2.81299
2.8149
2.81641
2.81721
2.81732
2.81742
2.81793
2.81942
2.82289
2.82912
2.83742
2.84556
2.85129
2.85395
1
1
1
1
1
1
1
1
1
1
1
1
1
1
1
1
1
1
1
1
1
1
1
1
1
1
1
1
1
1
1
1
1
1
1
1
1
1
1
1
1
1
1
1
1
1
1
1
1
1
1
1
1
1
1
1
1
1
1
1
1
1
1
1
1
1
1
1
1
1
1
1
1
1
1
1
1
1
1
1
1
1
1
1
1
1
1
1
1
1
1
1
1
1
1
1
1
1
1
1.41952
2.52131
2.68649
2.6916
2.69696
2.70098
2.70386
2.70561
2.70658
2.70725
2.70799
2.7091
2.7109
2.71359
2.71693
2.72049
2.7238
2.72657
2.72869
2.73005
2.73067
2.73079
2.73082
2.73127
2.73278
2.73552
2.73923
2.74325
2.7467
2.74894
2.74993
2.75007
2.74985
2.74999
2.75132
2.75421
2.75804
2.76182
2.76494
2.76712
2.76861
2.76935
2.77002
2.77087
2.77188
2.77268
2.7732
2.77447
2.77726
2.78103
2.78459
2.78732
2.78894
2.78955
2.78943
2.78933
2.78996
2.79115
2.79247
2.79333
2.79352
2.79328
2.79295
2.79291
2.79342
2.79462
2.79645
2.79881
2.80149
2.80417
2.80652
2.80791
2.8081
2.80766
2.80683
2.80642
2.80701
2.80839
2.81035
2.81254
2.8146
2.81631
2.81714
2.81714
2.81716
2.81754
2.819
2.82264
2.82911
2.83756
2.84563
2.85116
2.85365
1
1
1
1
1
1
1
1
1
1
1
1
1
1
1
1
1
1
1
1
1
1
1
1
1
1
1
1
1
1
1
1
1
1
1
1
1
1
1
1
1
1
1
1
1
1
1
1
1
1
1
1
1
1
1
1
1
1
1
1
1
1
1
1
1
1
1
1
1
1
1
1
1
1
1
1
1
1
1
1
1
1
1
1
1
1
1
1
1
1
1
1
1
1
1
1
1
1
1
1.39606
2.51346
2.68667
2.69084
2.69582
2.69984
2.70291
2.70491
2.70615
2.70708
2.70802
2.70919
2.71086
2.71321
2.71616
2.7195
2.72283
2.72579
2.72817
2.72982
2.73065
2.73086
2.7309
2.7312
2.73238
2.73482
2.73844
2.74263
2.74641
2.74902
2.75021
2.75037
2.75013
2.75022
2.75135
2.75394
2.75761
2.76136
2.76439
2.76653
2.76805
2.76882
2.76963
2.77084
2.77215
2.77313
2.77362
2.77463
2.7769
2.78038
2.78392
2.78692
2.78894
2.78977
2.78951
2.7891
2.78941
2.79045
2.79196
2.79328
2.79386
2.79369
2.79309
2.79264
2.79289
2.79402
2.79606
2.79866
2.80141
2.80399
2.80614
2.8075
2.80789
2.80761
2.807
2.80659
2.80692
2.80803
2.80984
2.81207
2.81429
2.81617
2.81701
2.81687
2.81679
2.81712
2.81864
2.82251
2.82917
2.83768
2.84563
2.85092
2.85321
1
1
1
1
1
1
1
1
1
1
1
1
1
1
1
1
1
1
1
1
1
1
1
1
1
1
1
1
1
1
1
1
1
1
1
1
1
1
1
1
1
1
1
1
1
1
1
1
1
1
1
1
1
1
1
1
1
1
1
1
1
1
1
1
1
1
1
1
1
1
1
1
1
1
1
1
1
1
1
1
1
1
1
1
1
1
1
1
1
1
1
1
1
1
1
1
1
1
1
1.36951
2.50387
2.6866
2.69017
2.69475
2.69875
2.70203
2.70428
2.70582
2.70696
2.70802
2.70917
2.71062
2.71259
2.71523
2.71846
2.7219
2.72505
2.72761
2.7294
2.73039
2.73076
2.73091
2.73126
2.73228
2.73444
2.73782
2.74195
2.7459
2.74886
2.75051
2.75109
2.75102
2.75101
2.75164
2.75348
2.75668
2.76036
2.76356
2.76609
2.76804
2.76891
2.76962
2.77067
2.77191
2.77298
2.77361
2.77461
2.77671
2.78
2.78347
2.78654
2.78873
2.78968
2.78937
2.78877
2.78886
2.78981
2.79155
2.79329
2.79417
2.79401
2.79308
2.79223
2.79231
2.79344
2.79574
2.79859
2.80135
2.80373
2.80561
2.8069
2.80752
2.80753
2.80718
2.80678
2.80682
2.80764
2.8093
2.81158
2.81396
2.81593
2.81672
2.81652
2.81635
2.81668
2.81838
2.82251
2.82932
2.83778
2.84555
2.85056
2.85264
1
1
1
1
1
1
1
1
1
1
1
1
1
1
1
1
1
1
1
1
1
1
1
1
1
1
1
1
1
1
1
1
1
1
1
1
1
1
1
1
1
1
1
1
1
1
1
1
1
1
1
1
1
1
1
1
1
1
1
1
1
1
1
1
1
1
1
1
1
1
1
1
1
1
1
1
1
1
1
1
1
1
1
1
1
1
1
1
1
1
1
1
1
1
1
1
1
1
1
1.33976
2.49171
2.68644
2.68967
2.69395
2.69785
2.70125
2.70374
2.70552
2.70684
2.70792
2.70894
2.71011
2.71182
2.71434
2.71761
2.72121
2.72451
2.72711
2.72887
2.72986
2.73038
2.73077
2.73131
2.73238
2.7344
2.7375
2.74139
2.74536
2.74865
2.75084
2.75193
2.75217
2.75205
2.75205
2.75287
2.75541
2.75901
2.76264
2.76584
2.76826
2.76933
2.76983
2.77048
2.77147
2.77254
2.77338
2.77456
2.77672
2.77989
2.78319
2.78616
2.78834
2.78936
2.78903
2.78836
2.78835
2.78927
2.79126
2.79331
2.79437
2.79417
2.7929
2.79172
2.79167
2.79289
2.7955
2.79857
2.80129
2.80338
2.80493
2.80615
2.80703
2.80741
2.80731
2.80691
2.8067
2.80732
2.80877
2.81107
2.8136
2.81556
2.81628
2.81609
2.81588
2.81628
2.81821
2.82259
2.82951
2.83785
2.84539
2.85009
2.85196
1
1
1
1
1
1
1
1
1
1
1
1
1
1
1
1
1
1
1
1
1
1
1
1
1
1
1
1
1
1
1
1
1
1
1
1
1
1
1
1
1
1
1
1
1
1
1
1
1
1
1
1
1
1
1
1
1
1
1
1
1
1
1
1
1
1
1
1
1
1
1
1
1
1
1
1
1
1
1
1
1
1
1
1
1
1
1
1
1
1
1
1
1
1
1
1
1
1
1
1.30585
2.47592
2.68697
2.68973
2.69344
2.69702
2.70037
2.70301
2.70498
2.70639
2.70743
2.70832
2.7094
2.71112
2.71376
2.71717
2.72086
2.72419
2.7267
2.72829
2.72919
2.72977
2.7304
2.73124
2.73253
2.73459
2.7375
2.74108
2.7449
2.74834
2.75099
2.75265
2.75323
2.75295
2.75237
2.7524
2.75418
2.75769
2.76183
2.76572
2.76859
2.76983
2.77004
2.77018
2.77076
2.77179
2.77299
2.77453
2.77688
2.77995
2.783
2.78572
2.78776
2.78875
2.78854
2.78794
2.78794
2.78892
2.79104
2.79321
2.79434
2.79411
2.79256
2.79116
2.79103
2.79241
2.79532
2.79859
2.8012
2.80293
2.80421
2.80534
2.80642
2.80714
2.80734
2.80699
2.80666
2.80706
2.80831
2.81056
2.81315
2.81506
2.8157
2.81558
2.8154
2.81594
2.81813
2.82271
2.82968
2.83787
2.84513
2.84952
2.85117
1
1
1
1
1
1
1
1
1
1
1
1
1
1
1
1
1
1
1
1
1
1
1
1
1
1
1
1
1
1
1
1
1
1
1
1
1
1
1
1
1
1
1
1
1
1
1
1
1
1
1
1
1
1
1
1
1
1
1
1
1
1
1
1
1
1
1
1
1
1
1
1
1
1
1
1
1
1
1
1
1
1
1
1
1
1
1
1
1
1
1
1
1
1
1
1
1
1
1
1.26879
2.45717
2.68798
2.68983
2.69287
2.69618
2.69943
2.70205
2.70403
2.70543
2.70645
2.70741
2.70871
2.71075
2.71362
2.71713
2.72083
2.72406
2.72638
2.72776
2.7285
2.7291
2.72991
2.73108
2.7327
2.73488
2.73769
2.74102
2.74464
2.74803
2.75092
2.75295
2.75379
2.75347
2.75253
2.75205
2.75333
2.75673
2.76127
2.76568
2.76887
2.77017
2.77008
2.76977
2.76994
2.77093
2.77255
2.77454
2.77706
2.78003
2.78282
2.7852
2.78697
2.78789
2.78791
2.78756
2.78768
2.7887
2.79079
2.79288
2.794
2.79374
2.79207
2.7906
2.79047
2.792
2.79514
2.79851
2.801
2.80244
2.80349
2.80453
2.80572
2.80672
2.80721
2.80698
2.80662
2.80687
2.80794
2.81006
2.81261
2.81442
2.815
2.815
2.81496
2.81568
2.8181
2.82282
2.82978
2.83782
2.8448
2.84887
2.85034
1
1
1
1
1
1
1
1
1
1
1
1
1
1
1
1
1
1
1
1
1
1
1
1
1
1
1
1
1
1
1
1
1
1
1
1
1
1
1
1
1
1
1
1
1
1
1
1
1
1
1
1
1
1
1
1
1
1
1
1
1
1
1
1
1
1
1
1
1
1
1
1
1
1
1
1
1
1
1
1
1
1
1
1
1
1
1
1
1
1
1
1
1
1
1
1
1
1
1
1.22918
2.43488
2.6882
2.68973
2.69236
2.69546
2.6985
2.70091
2.70271
2.70409
2.70524
2.70649
2.70822
2.71071
2.71389
2.71749
2.72108
2.7241
2.72614
2.72727
2.72793
2.72855
2.72947
2.73088
2.7328
2.73519
2.73798
2.74112
2.74457
2.74776
2.75063
2.75277
2.75379
2.75357
2.75256
2.75189
2.75293
2.75623
2.76097
2.76567
2.76897
2.77022
2.76991
2.76923
2.76915
2.77014
2.77215
2.77454
2.7772
2.78006
2.78256
2.78455
2.78602
2.78691
2.78722
2.78722
2.78749
2.78856
2.7905
2.79238
2.79337
2.79307
2.79146
2.79009
2.79005
2.7917
2.79493
2.79827
2.80062
2.8019
2.80282
2.8038
2.80502
2.80618
2.80688
2.80682
2.80656
2.80674
2.80767
2.80961
2.81197
2.81363
2.81422
2.81438
2.81455
2.81552
2.81811
2.82288
2.82979
2.83766
2.84437
2.84818
2.84953
1
1
1
1
1
1
1
1
1
1
1
1
1
1
1
1
1
1
1
1
1
1
1
1
1
1
1
1
1
1
1
1
1
1
1
1
1
1
1
1
1
1
1
1
1
1
1
1
1
1
1
1
1
1
1
1
1
1
1
1
1
1
1
1
1
1
1
1
1
1
1
1
1
1
1
1
1
1
1
1
1
1
1
1
1
1
1
1
1
1
1
1
1
1
1
1
1
1
1
1.18409
2.40641
2.68707
2.6893
2.69209
2.69507
2.69784
2.69994
2.70146
2.7027
2.70399
2.70563
2.70792
2.71094
2.71449
2.71817
2.72158
2.72427
2.72594
2.72683
2.72742
2.72811
2.72914
2.7307
2.73282
2.7354
2.73825
2.74128
2.74452
2.7475
2.75025
2.75243
2.75358
2.75345
2.75258
2.75196
2.7529
2.75606
2.76076
2.76547
2.76877
2.76999
2.76956
2.76868
2.76848
2.76951
2.77176
2.77444
2.77721
2.77993
2.78214
2.78377
2.78498
2.78591
2.78653
2.78689
2.78737
2.78846
2.79015
2.79172
2.79246
2.79212
2.79076
2.78965
2.78976
2.79149
2.79462
2.79779
2.80003
2.80128
2.8022
2.80317
2.8044
2.80557
2.80636
2.80653
2.80646
2.80663
2.80748
2.80921
2.81126
2.81274
2.81338
2.81372
2.81418
2.81542
2.81812
2.82286
2.82967
2.83735
2.84382
2.84745
2.84876
1
1
1
1
1
1
1
1
1
1
1
1
1
1
1
1
1
1
1
1
1
1
1
1
1
1
1
1
1
1
1
1
1
1
1
1
1
1
1
1
1
1
1
1
1
1
1
1
1
1
1
1
1
1
1
1
1
1
1
1
1
1
1
1
1
1
1
1
1
1
1
1
1
1
1
1
1
1
1
1
1
1
1
1
1
1
1
1
1
1
1
1
1
1
1
1
1
1
1
1.13379
2.37233
2.68594
2.68921
2.69201
2.6948
2.69719
2.69901
2.70032
2.70153
2.70303
2.70512
2.70796
2.71152
2.71542
2.71914
2.72233
2.72463
2.72591
2.72651
2.72701
2.72773
2.72884
2.7305
2.73275
2.73544
2.73835
2.74134
2.74437
2.74714
2.74973
2.75192
2.75321
2.7533
2.75273
2.75224
2.75305
2.75596
2.76041
2.76497
2.76827
2.76954
2.76914
2.76824
2.76801
2.76905
2.77136
2.77416
2.77695
2.77953
2.78152
2.78289
2.78397
2.78498
2.7859
2.78661
2.7873
2.78832
2.7897
2.79089
2.79138
2.79104
2.79006
2.7893
2.7896
2.79133
2.7942
2.79712
2.79929
2.8006
2.80163
2.80266
2.80385
2.80494
2.80571
2.80608
2.80623
2.80651
2.80733
2.80882
2.81051
2.81178
2.8125
2.81305
2.81382
2.81534
2.8181
2.82273
2.8294
2.83688
2.84317
2.84672
2.84809
1
1
1
1
1
1
1
1
1
1
1
1
1
1
1
1
1
1
1
1
1
1
1
1
1
1
1
1
1
1
1
1
1
1
1
1
1
1
1
1
1
1
1
1
1
1
1
1
1
1
1
1
1
1
1
1
1
1
1
1
1
1
1
1
1
1
1
1
1
1
1
1
1
1
1
1
1
1
1
1
1
1
1
1
1
1
1
1
1
1
1
1
1
1
1
1
1
1
1
1.07628
2.33828
2.6865
2.68965
2.69222
2.6949
2.69703
2.6987
2.69994
2.70117
2.70272
2.70498
2.70813
2.71201
2.71602
2.71969
2.72269
2.72473
2.72577
2.72621
2.72664
2.72738
2.72856
2.73032
2.73267
2.73542
2.73833
2.74123
2.74404
2.74663
2.74914
2.75138
2.75289
2.75328
2.75297
2.75259
2.75322
2.75575
2.75986
2.76425
2.76758
2.769
2.76873
2.76796
2.76774
2.76871
2.77093
2.77368
2.7764
2.77886
2.78073
2.78201
2.78308
2.78422
2.78534
2.78628
2.78708
2.78798
2.78902
2.78988
2.79021
2.78997
2.78941
2.78905
2.78949
2.79112
2.79364
2.79627
2.79841
2.7999
2.80108
2.80219
2.80332
2.80431
2.80504
2.80553
2.8059
2.80635
2.80715
2.80841
2.80974
2.81079
2.8116
2.81237
2.81347
2.81524
2.81804
2.82249
2.82894
2.83625
2.84241
2.84601
2.84753
1
1
1
1
1
1
1
1
1
1
1
1
1
1
1
1
1
1
1
1
1
1
1
1
1
1
1
1
1
1
1
1
1
1
1
1
1
1
1
1
1
1
1
1
1
1
1
1
1
1
1
1
1
1
1
1
1
1
1
1
1
1
1
1
1
1
1
1
1
1
1
1
1
1
1
1
1
1
1
1
1
1
1
1
1
1
1
1
1
1
1
1
1
1
1
1
1
1
1
1.01198
2.30277
2.68698
2.69
2.69185
2.69435
2.69631
2.69803
2.69952
2.70105
2.7029
2.70537
2.70873
2.71269
2.71665
2.72021
2.72303
2.72487
2.72577
2.72611
2.72645
2.72714
2.72832
2.73014
2.73254
2.73528
2.73813
2.74088
2.74348
2.74598
2.74851
2.7509
2.75265
2.75333
2.75319
2.75283
2.75326
2.75537
2.75909
2.76333
2.76676
2.76841
2.76839
2.76782
2.7676
2.76843
2.7704
2.77293
2.77553
2.77793
2.7798
2.78114
2.78234
2.78363
2.78484
2.78583
2.78658
2.7873
2.78806
2.78872
2.78907
2.78907
2.78889
2.78884
2.78935
2.7908
2.79297
2.79533
2.79749
2.79921
2.80053
2.80168
2.80275
2.80365
2.80436
2.80496
2.80551
2.80611
2.80688
2.80792
2.80896
2.80983
2.8107
2.81172
2.81311
2.8151
2.8179
2.82211
2.82831
2.83546
2.84156
2.84531
2.84708
1
1
1
1
1
1
1
1
1
1
1
1
1
1
1
1
1
1
1
1
1
1
1
1
1
1
1
1
1
1
1
1
1
1
1
1
1
1
1
1
1
1
1
1
1
1
1
1
1
1
1
1
1
1
1
1
1
1
1
1
1
1
1
1
1
1
1
1
1
1
1
1
1
1
1
1
1
1
1
1
1
1
1
1
1
1
1
1
1
1
1
1
1
1
1
1
1
1
1
1.00015
2.25792
2.68786
2.69081
2.69188
2.69397
2.69578
2.69765
2.69949
2.70137
2.70351
2.70612
2.70939
2.7131
2.71685
2.72029
2.72305
2.72488
2.72575
2.72602
2.72624
2.72684
2.72803
2.72993
2.73238
2.7351
2.73783
2.74038
2.74279
2.74525
2.74789
2.75049
2.75249
2.75337
2.75331
2.75292
2.75314
2.75483
2.7582
2.76232
2.76586
2.76783
2.76816
2.76773
2.76749
2.76812
2.76975
2.77197
2.7744
2.7768
2.77876
2.7803
2.78174
2.78317
2.78441
2.78529
2.78585
2.78631
2.78684
2.78747
2.78806
2.7884
2.78851
2.78863
2.78909
2.79025
2.79212
2.79437
2.79662
2.79856
2.79998
2.80112
2.80208
2.80294
2.8037
2.80444
2.80514
2.8058
2.8065
2.80733
2.80817
2.80893
2.80985
2.81107
2.8127
2.81489
2.81765
2.8216
2.82753
2.83454
2.84064
2.84463
2.8467
1
1
1
1
1
1
1
1
1
1
1
1
1
1
1
1
1
1
1
1
1
1
1
1
1
1
1
1
1
1
1
1
1
1
1
1
1
1
1
1
1
1
1
1
1
1
1
1
1
1
1
1
1
1
1
1
1
1
1
1
1
1
1
1
1
1
1
1
1
1
1
1
1
1
1
1
1
1
1
1
1
1
1
1
1
1
1
1
1
1
1
1
1
1
1
1
1
1
1
1
2.20533
2.68746
2.69146
2.69173
2.69342
2.69516
2.69722
2.69944
2.70174
2.70417
2.7068
2.7098
2.71319
2.7167
2.72005
2.72285
2.72477
2.72566
2.72587
2.72596
2.72648
2.72772
2.72972
2.73225
2.73493
2.7375
2.73981
2.74204
2.74448
2.74723
2.75004
2.75225
2.75327
2.75324
2.75281
2.75283
2.7542
2.75731
2.76134
2.76497
2.76719
2.76781
2.76752
2.76725
2.76767
2.76898
2.77092
2.77321
2.77561
2.7777
2.7795
2.78121
2.78279
2.784
2.78466
2.7849
2.78508
2.78544
2.7862
2.78718
2.78793
2.78825
2.78834
2.78857
2.78941
2.7911
2.7934
2.79587
2.79798
2.79944
2.80047
2.80132
2.80218
2.80306
2.80396
2.80476
2.80541
2.806
2.80667
2.80737
2.80808
2.80904
2.8104
2.81224
2.81458
2.81727
2.82097
2.82663
2.83353
2.83967
2.84396
2.84634
1
1
1
1
1
1
1
1
1
1
1
1
1
1
1
1
1
1
1
1
1
1
1
1
1
1
1
1
1
1
1
1
1
1
1
1
1
1
1
1
1
1
1
1
1
1
1
1
1
1
1
1
1
1
1
1
1
1
1
1
1
1
1
1
1
1
1
1
1
1
1
1
1
1
1
1
1
1
1
1
1
1
1
1
1
1
1
1
1
1
1
1
1
1
1
1
1
1
1
1
2.14603
2.68398
2.69197
2.69163
2.69296
2.69458
2.69678
2.69928
2.70187
2.70448
2.70714
2.70992
2.71302
2.7163
2.71953
2.72237
2.72438
2.72534
2.72552
2.72554
2.72603
2.72739
2.72954
2.73215
2.7348
2.7372
2.73927
2.7413
2.74369
2.74653
2.74949
2.75183
2.75295
2.75291
2.75241
2.75234
2.75354
2.75651
2.76048
2.76415
2.7665
2.76726
2.76706
2.76677
2.76704
2.7681
2.76988
2.77208
2.77445
2.77662
2.77865
2.78063
2.78238
2.78354
2.78391
2.7838
2.78371
2.78396
2.78496
2.78642
2.78754
2.78798
2.78791
2.78781
2.78837
2.78999
2.79249
2.79527
2.79753
2.7989
2.79975
2.80048
2.80138
2.80242
2.80347
2.80431
2.80489
2.80536
2.80592
2.80656
2.80727
2.80825
2.80971
2.81171
2.81416
2.81678
2.82026
2.82566
2.83246
2.83868
2.84329
2.84594
1
1
1
1
1
1
1
1
1
1
1
1
1
1
1
1
1
1
1
1
1
1
1
1
1
1
1
1
1
1
1
1
1
1
1
1
1
1
1
1
1
1
1
1
1
1
1
1
1
1
1
1
1
1
1
1
1
1
1
1
1
1
1
1
1
1
1
1
1
1
1
1
1
1
1
1
1
1
1
1
1
1
1
1
1
1
1
1
1
1
1
1
1
1
1
1
1
1
1
1
2.08109
2.67645
2.69221
2.69149
2.69257
2.69404
2.69628
2.69892
2.70162
2.70429
2.70692
2.7096
2.71254
2.71571
2.71887
2.72166
2.7237
2.72471
2.7249
2.72489
2.72545
2.72701
2.72936
2.73208
2.73469
2.73691
2.73873
2.74054
2.74284
2.74571
2.74878
2.75122
2.75239
2.75235
2.75182
2.75172
2.75289
2.75584
2.75979
2.76344
2.76575
2.76649
2.76627
2.76593
2.76613
2.76714
2.7689
2.77109
2.77342
2.77562
2.77777
2.77991
2.78177
2.78291
2.78304
2.78261
2.78227
2.78254
2.78385
2.78573
2.78716
2.78762
2.78729
2.78686
2.78724
2.7889
2.79169
2.79478
2.7971
2.79829
2.79896
2.79958
2.80054
2.80173
2.80292
2.80378
2.80427
2.80464
2.80514
2.80577
2.80648
2.80748
2.809
2.8111
2.81361
2.81619
2.8195
2.82466
2.83136
2.8377
2.84257
2.84542
1
1
1
1
1
1
1
1
1
1
1
1
1
1
1
1
1
1
1
1
1
1
1
1
1
1
1
1
1
1
1
1
1
1
1
1
1
1
1
1
1
1
1
1
1
1
1
1
1
1
1
1
1
1
1
1
1
1
1
1
1
1
1
1
1
1
1
1
1
1
1
1
1
1
1
1
1
1
1
1
1
1
1
1
1
1
1
1
1
1
1
1
1
1
1
1
1
1
1
1
2.01024
2.66508
2.692
2.69118
2.69219
2.69359
2.69578
2.69832
2.70091
2.70351
2.70609
2.70871
2.71172
2.71499
2.71816
2.7209
2.72287
2.72382
2.72396
2.72394
2.72461
2.72648
2.72911
2.73199
2.7346
2.73667
2.73824
2.73982
2.74197
2.74482
2.74794
2.75043
2.7516
2.75151
2.75094
2.75087
2.75212
2.75515
2.75914
2.76275
2.76496
2.76558
2.76527
2.76484
2.76505
2.76615
2.76801
2.77025
2.77254
2.77469
2.77683
2.77899
2.78088
2.78201
2.78204
2.78143
2.78095
2.78132
2.78291
2.78508
2.78662
2.78699
2.78637
2.78574
2.78604
2.78785
2.79098
2.79428
2.79659
2.79761
2.79813
2.79868
2.7997
2.80102
2.80229
2.80313
2.80355
2.80386
2.80434
2.80497
2.80568
2.8067
2.80825
2.81041
2.81295
2.81548
2.81868
2.82366
2.83028
2.83672
2.84179
2.84475
1
1
1
1
1
1
1
1
1
1
1
1
1
1
1
1
1
1
1
1
1
1
1
1
1
1
1
1
1
1
1
1
1
1
1
1
1
1
1
1
1
1
1
1
1
1
1
1
1
1
1
1
1
1
1
1
1
1
1
1
1
1
1
1
1
1
1
1
1
1
1
1
1
1
1
1
1
1
1
1
1
1
1
1
1
1
1
1
1
1
1
1
1
1
1
1
1
1
1
1
1.9324
2.64982
2.69121
2.69074
2.69189
2.69328
2.69533
2.6976
2.69985
2.70214
2.70462
2.7073
2.7105
2.71409
2.71743
2.72015
2.72199
2.72279
2.72284
2.72279
2.72354
2.72571
2.7287
2.7318
2.73445
2.73637
2.73766
2.73894
2.74093
2.74374
2.74692
2.74948
2.75069
2.75059
2.75
2.74997
2.7513
2.75443
2.75844
2.762
2.76408
2.76452
2.76411
2.76361
2.76386
2.76513
2.76716
2.76948
2.77176
2.77383
2.77586
2.77791
2.77971
2.78081
2.78084
2.78024
2.77981
2.78033
2.78213
2.78436
2.78583
2.78602
2.78524
2.78457
2.78491
2.78694
2.79035
2.79374
2.79597
2.79688
2.7973
2.79782
2.79888
2.80024
2.80151
2.80231
2.8027
2.80302
2.8035
2.80414
2.80486
2.80588
2.80745
2.80964
2.81219
2.81469
2.81782
2.82267
2.82922
2.83574
2.84094
2.84391
1
1
1
1
1
1
1
1
1
1
1
1
1
1
1
1
1
1
1
1
1
1
1
1
1
1
1
1
1
1
1
1
1
1
1
1
1
1
1
1
1
1
1
1
1
1
1
1
1
1
1
1
1
1
1
1
1
1
1
1
1
1
1
1
1
1
1
1
1
1
1
1
1
1
1
1
1
1
1
1
1
1
1
1
1
1
1
1
1
1
1
1
1
1
1
1
1
1
1
1
1.84758
2.63071
2.68917
2.69018
2.69183
2.69322
2.69499
2.69688
2.69872
2.70062
2.70281
2.70551
2.70896
2.71298
2.71666
2.71944
2.72108
2.7216
2.7215
2.72134
2.72213
2.7246
2.728
2.7314
2.73418
2.73601
2.73703
2.73802
2.73981
2.74254
2.74576
2.7484
2.74967
2.74958
2.74904
2.74904
2.75044
2.75358
2.75757
2.76106
2.76304
2.76339
2.76292
2.7624
2.7627
2.76409
2.76627
2.76869
2.77098
2.77299
2.77485
2.77669
2.77832
2.77935
2.77949
2.77909
2.77885
2.77956
2.78143
2.78352
2.78477
2.7848
2.78401
2.78345
2.78393
2.78619
2.78972
2.79307
2.79518
2.79604
2.79644
2.797
2.79807
2.79939
2.80059
2.80135
2.80175
2.80213
2.80266
2.80329
2.804
2.80502
2.80661
2.80882
2.81135
2.81381
2.8169
2.82168
2.82818
2.83477
2.84
2.84289
1
1
1
1
1
1
1
1
1
1
1
1
1
1
1
1
1
1
1
1
1
1
1
1
1
1
1
1
1
1
1
1
1
1
1
1
1
1
1
1
1
1
1
1
1
1
1
1
1
1
1
1
1
1
1
1
1
1
1
1
1
1
1
1
1
1
1
1
1
1
1
1
1
1
1
1
1
1
1
1
1
1
1
1
1
1
1
1
1
1
1
1
1
1
1
1
1
1
1
1
1.75595
2.6089
2.68566
2.68932
2.69174
2.69321
2.69471
2.69627
2.69775
2.69926
2.70109
2.70359
2.70719
2.71162
2.7157
2.71863
2.72014
2.72038
2.7201
2.71978
2.72056
2.72325
2.72702
2.73075
2.73371
2.7355
2.73629
2.73702
2.73864
2.74125
2.74443
2.74714
2.7485
2.74848
2.74806
2.74815
2.74957
2.75262
2.75646
2.75985
2.76181
2.7622
2.76177
2.7613
2.76161
2.76302
2.76525
2.76775
2.77009
2.77206
2.77376
2.77538
2.77682
2.77779
2.77808
2.77798
2.77804
2.77897
2.78069
2.78242
2.7834
2.78336
2.78274
2.78241
2.78312
2.78556
2.78906
2.79223
2.79423
2.7951
2.79558
2.79622
2.79726
2.79848
2.79956
2.80028
2.80073
2.8012
2.80176
2.80237
2.80307
2.8041
2.80572
2.80794
2.81042
2.81285
2.81592
2.82068
2.82717
2.8338
2.83898
2.8417
1
1
1
1
1
1
1
1
1
1
1
1
1
1
1
1
1
1
1
1
1
1
1
1
1
1
1
1
1
1
1
1
1
1
1
1
1
1
1
1
1
1
1
1
1
1
1
1
1
1
1
1
1
1
1
1
1
1
1
1
1
1
1
1
1
1
1
1
1
1
1
1
1
1
1
1
1
1
1
1
1
1
1
1
1
1
1
1
1
1
1
1
1
1
1
1
1
1
1
1
1.65691
2.58436
2.68198
2.68767
2.69098
2.69283
2.69431
2.69575
2.69702
2.69818
2.6996
2.70179
2.70531
2.70999
2.71442
2.71759
2.71907
2.71912
2.71864
2.71814
2.71893
2.72175
2.72579
2.72978
2.73291
2.7347
2.73536
2.73598
2.73748
2.73995
2.74299
2.74565
2.74707
2.74721
2.747
2.74726
2.74874
2.75161
2.7552
2.75841
2.76037
2.7609
2.76063
2.7603
2.76063
2.76197
2.76414
2.76664
2.769
2.77095
2.77254
2.77397
2.77525
2.7762
2.77671
2.77696
2.77738
2.77839
2.77979
2.78109
2.78181
2.78182
2.7815
2.78146
2.78247
2.78501
2.78833
2.79126
2.79316
2.7941
2.7947
2.79541
2.79639
2.79748
2.79844
2.79915
2.79965
2.80019
2.80078
2.80137
2.80208
2.80314
2.80479
2.80698
2.80939
2.81178
2.81488
2.81967
2.82617
2.83281
2.83788
2.84035
1
1
1
1
1
1
1
1
1
1
1
1
1
1
1
1
1
1
1
1
1
1
1
1
1
1
1
1
1
1
1
1
1
1
1
1
1
1
1
1
1
1
1
1
1
1
1
1
1
1
1
1
1
1
1
1
1
1
1
1
1
1
1
1
1
1
1
1
1
1
1
1
1
1
1
1
1
1
1
1
1
1
1
1
1
1
1
1
1
1
1
1
1
1
1
1
1
1
1
1
1.55164
2.55578
2.68027
2.68498
2.68894
2.69153
2.69339
2.69498
2.69627
2.69729
2.69836
2.70017
2.70344
2.70805
2.71268
2.71609
2.7177
2.71774
2.71715
2.7166
2.71741
2.72029
2.72441
2.72847
2.73166
2.73352
2.7342
2.73489
2.73638
2.7387
2.74147
2.74392
2.74533
2.74568
2.74579
2.74635
2.74793
2.75061
2.75388
2.75683
2.75875
2.75946
2.75943
2.75934
2.75974
2.76097
2.76296
2.76535
2.76768
2.76961
2.77114
2.77247
2.77369
2.77469
2.77545
2.77604
2.77672
2.77764
2.77867
2.77959
2.78014
2.78029
2.7803
2.78063
2.78193
2.78444
2.7875
2.79016
2.79199
2.79304
2.79374
2.7945
2.79542
2.7964
2.7973
2.79801
2.79856
2.79912
2.79969
2.80028
2.80104
2.80217
2.80381
2.80593
2.80823
2.81059
2.81376
2.81865
2.82519
2.8318
2.83669
2.83887
1
1
1
1
1
1
1
1
1
1
1
1
1
1
1
1
1
1
1
1
1
1
1
1
1
1
1
1
1
1
1
1
1
1
1
1
1
1
1
1
1
1
1
1
1
1
1
1
1
1
1
1
1
1
1
1
1
1
1
1
1
1
1
1
1
1
1
1
1
1
1
1
1
1
1
1
1
1
1
1
1
1
1
1
1
1
1
1
1
1
1
1
1
1
1
1
1
1
1
1
1.44287
2.52101
2.67975
2.68203
2.68555
2.68869
2.69143
2.69366
2.69532
2.69646
2.69743
2.69889
2.70175
2.70606
2.71057
2.71411
2.71595
2.71614
2.71566
2.71527
2.71619
2.71907
2.72304
2.72695
2.73005
2.73196
2.73282
2.73372
2.7353
2.73748
2.73996
2.74212
2.74341
2.74393
2.74436
2.74529
2.74701
2.74957
2.75255
2.75523
2.75704
2.75789
2.75814
2.75831
2.75884
2.75997
2.76174
2.76394
2.76615
2.76804
2.76958
2.77095
2.77222
2.77335
2.77431
2.77512
2.77587
2.77663
2.77736
2.77801
2.77851
2.77887
2.77923
2.77991
2.78137
2.78375
2.78654
2.78898
2.79078
2.79192
2.79268
2.79344
2.79431
2.79525
2.79617
2.79691
2.79746
2.79795
2.79847
2.7991
2.79996
2.80119
2.80279
2.80476
2.80692
2.80926
2.81256
2.8176
2.82422
2.83076
2.83541
2.83727
1
1
1
1
1
1
1
1
1
1
1
1
1
1
1
1
1
1
1
1
1
1
1
1
1
1
1
1
1
1
1
1
1
1
1
1
1
1
1
1
1
1
1
1
1
1
1
1
1
1
1
1
1
1
1
1
1
1
1
1
1
1
1
1
1
1
1
1
1
1
1
1
1
1
1
1
1
1
1
1
1
1
1
1
1
1
1
1
1
1
1
1
1
1
1
1
1
1
1
1
1.33102
2.47832
2.68076
2.67988
2.68253
2.68553
2.68891
2.6919
2.69416
2.69566
2.69679
2.69813
2.70051
2.70416
2.70822
2.71166
2.71377
2.71441
2.71424
2.71426
2.71543
2.71821
2.72182
2.72536
2.72822
2.73011
2.7312
2.73238
2.73411
2.73623
2.73848
2.74036
2.7415
2.74209
2.74277
2.74399
2.7459
2.74841
2.7512
2.75366
2.75534
2.75623
2.75669
2.75711
2.7578
2.75891
2.76048
2.76246
2.76449
2.76631
2.76793
2.76946
2.77091
2.77218
2.77323
2.77406
2.77473
2.77532
2.7759
2.77648
2.77705
2.77765
2.77831
2.77922
2.78072
2.78295
2.7855
2.78778
2.78956
2.79073
2.79149
2.7922
2.79306
2.79406
2.79507
2.79585
2.79634
2.79669
2.79712
2.79783
2.79887
2.8002
2.80171
2.80347
2.80544
2.8078
2.81127
2.81652
2.82325
2.82969
2.83406
2.83559
1
1
1
1
1
1
1
1
1
1
1
1
1
1
1
1
1
1
1
1
1
1
1
1
1
1
1
1
1
1
1
1
1
1
1
1
1
1
1
1
1
1
1
1
1
1
1
1
1
1
1
1
1
1
1
1
1
1
1
1
1
1
1
1
1
1
1
1
1
1
1
1
1
1
1
1
1
1
1
1
1
1
1
1
1
1
1
1
1
1
1
1
1
1
1
1
1
1
1
1
1.22055
2.42485
2.68012
2.67953
2.68121
2.68388
2.68713
2.69039
2.69313
2.69505
2.69642
2.69778
2.69986
2.70273
2.70598
2.70912
2.71142
2.71261
2.71305
2.71364
2.71511
2.71769
2.72083
2.72392
2.72646
2.72825
2.7295
2.73089
2.73271
2.73482
2.73694
2.73869
2.73977
2.74042
2.74123
2.74259
2.74459
2.74709
2.74978
2.75212
2.75371
2.75459
2.75513
2.75571
2.75655
2.75771
2.75916
2.76094
2.76278
2.76453
2.76628
2.76806
2.76971
2.77107
2.77209
2.77278
2.77328
2.77378
2.77438
2.77508
2.77581
2.7766
2.77745
2.77847
2.77994
2.78203
2.78443
2.78659
2.78831
2.78945
2.79015
2.79082
2.79171
2.79285
2.79401
2.7948
2.79515
2.79532
2.79564
2.79649
2.79776
2.79919
2.80057
2.80204
2.80382
2.80621
2.80988
2.81538
2.82223
2.82858
2.83264
2.83385
1
1
1
1
1
1
1
1
1
1
1
1
1
1
1
1
1
1
1
1
1
1
1
1
1
1
1
1
1
1
1
1
1
1
1
1
1
1
1
1
1
1
1
1
1
1
1
1
1
1
1
1
1
1
1
1
1
1
1
1
1
1
1
1
1
1
1
1
1
1
1
1
1
1
1
1
1
1
1
1
1
1
1
1
1
1
1
1
1
1
1
1
1
1
1
1
1
1
1
1
1.11153
2.36678
2.68142
2.6809
2.6816
2.68383
2.68686
2.69004
2.69281
2.69491
2.69646
2.69796
2.69993
2.70224
2.70479
2.70738
2.70961
2.71116
2.71223
2.71334
2.715
2.71732
2.72002
2.7227
2.72499
2.72671
2.72804
2.72948
2.73124
2.73325
2.73533
2.73711
2.73829
2.73908
2.73995
2.74128
2.74321
2.74564
2.74828
2.7506
2.75216
2.75302
2.75355
2.75418
2.75512
2.75633
2.75774
2.75938
2.76108
2.76279
2.7647
2.76672
2.76855
2.76992
2.77078
2.77124
2.77159
2.77211
2.77291
2.77384
2.77476
2.77565
2.77658
2.77762
2.77904
2.78108
2.78338
2.78539
2.78701
2.78805
2.78867
2.78932
2.79032
2.79165
2.79294
2.79367
2.79385
2.79383
2.7941
2.79512
2.79664
2.79814
2.79934
2.80052
2.80208
2.8045
2.80839
2.81414
2.82112
2.82739
2.83116
2.83211
1
1
1
1
1
1
1
1
1
1
1
1
1
1
1
1
1
1
1
1
1
1
1
1
1
1
1
1
1
1
1
1
1
1
1
1
1
1
1
1
1
1
1
1
1
1
1
1
1
1
1
1
1
1
1
1
1
1
1
1
1
1
1
1
1
1
1
1
1
1
1
1
1
1
1
1
1
1
1
1
1
1
1
1
1
1
1
1
1
1
1
1
1
1
1
1
1
1
1
1
1.00586
2.30431
2.68374
2.68261
2.68297
2.68491
2.68752
2.6904
2.69305
2.69514
2.69679
2.69842
2.70018
2.70192
2.70388
2.70613
2.70841
2.71036
2.71198
2.71347
2.71514
2.71711
2.7194
2.72177
2.72391
2.72561
2.72699
2.72833
2.72986
2.73165
2.73369
2.73561
2.73706
2.73807
2.739
2.74021
2.74192
2.74416
2.74672
2.74906
2.75068
2.75154
2.75204
2.75264
2.75359
2.75483
2.75624
2.75782
2.75943
2.76116
2.76321
2.7654
2.76731
2.76861
2.76924
2.76949
2.76977
2.77045
2.77156
2.77278
2.77381
2.7747
2.77562
2.77664
2.77806
2.78012
2.78234
2.78417
2.78562
2.7865
2.78706
2.78779
2.78896
2.79048
2.79181
2.79242
2.79241
2.79224
2.79255
2.79374
2.79546
2.797
2.79801
2.79892
2.80028
2.80271
2.8068
2.81277
2.81985
2.82609
2.82963
2.83046
1
1
1
1
1
1
1
1
1
1
1
1
1
1
1
1
1
1
1
1
1
1
1
1
1
1
1
1
1
1
1
1
1
1
1
1
1
1
1
1
1
1
1
1
1
1
1
1
1
1
1
1
1
1
1
1
1
1
1
1
1
1
1
1
1
1
1
1
1
1
1
1
1
1
1
1
1
1
1
1
1
1
1
1
1
1
1
1
1
1
1
1
1
1
1
1
1
1
1
1
1.00003
2.23002
2.68077
2.68283
2.68473
2.68727
2.68953
2.69184
2.69408
2.69599
2.69758
2.69906
2.70039
2.70171
2.70337
2.70557
2.70807
2.7104
2.71237
2.71396
2.71533
2.71671
2.71855
2.72077
2.72301
2.72492
2.7264
2.7276
2.72878
2.73026
2.73218
2.73427
2.73604
2.73735
2.73835
2.73939
2.74079
2.74275
2.74517
2.74753
2.74923