/*--------------------------------*- C++ -*----------------------------------*\
  =========                 |
  \\      /  F ield         | OpenFOAM: The Open Source CFD Toolbox
   \\    /   O peration     | Website:  https://openfoam.org
    \\  /    A nd           | Version:  7
     \\/     M anipulation  |
\*---------------------------------------------------------------------------*/
FoamFile
{
    version     2.0;
    format      ascii;
    class       volScalarField;
    location    "3.2";
    object      rho;
}
// * * * * * * * * * * * * * * * * * * * * * * * * * * * * * * * * * * * * * //

dimensions      [1 -3 0 0 0 0 0];

internalField   nonuniform List<scalar> 
4032
(
1.40001
1.40001
1.40001
1.40001
1.40001
1.40001
1.40001
1.40001
1.40001
1.40001
1.40001
1.48117
4.1868
5.46029
5.50778
5.57812
5.64596
5.71345
5.77778
5.83533
5.88288
5.91682
5.94118
5.96077
1.40001
1.40001
1.40001
1.40001
1.40001
1.40001
1.40001
1.40001
1.40001
1.40001
1.40001
1.45997
4.1268
5.44851
5.50129
5.56983
5.63698
5.70338
5.76648
5.82219
5.86718
5.89799
5.91863
5.93583
1.40001
1.40001
1.40001
1.40001
1.40001
1.40001
1.40001
1.40001
1.40001
1.40001
1.40001
1.40665
3.99536
5.43357
5.48468
5.5502
5.61619
5.68073
5.74214
5.79645
5.84064
5.87114
5.89064
5.90839
1.40001
1.40001
1.40001
1.40001
1.40001
1.40001
1.40001
1.40001
1.40001
1.40001
1.40001
1.40012
3.78178
5.39664
5.45583
5.51875
5.58414
5.64657
5.70586
5.75801
5.79965
5.82592
5.83901
5.84986
1.40001
1.40001
1.40001
1.40001
1.40001
1.40001
1.40001
1.40001
1.40001
1.40001
1.40001
1.4
3.49196
5.33594
5.42273
5.48175
5.54462
5.60201
5.65505
5.69953
5.73325
5.75465
5.76515
5.78304
1.40001
1.40001
1.40001
1.40001
1.40001
1.40001
1.40001
1.40001
1.40001
1.40001
1.40001
1.40001
3.13378
5.24298
5.38843
5.44083
5.49678
5.54571
5.59042
5.62832
5.65666
5.67536
5.6789
5.66659
1.40001
1.40001
1.40001
1.40001
1.40001
1.40001
1.40001
1.40001
1.40001
1.40001
1.40001
1.40001
2.72205
5.11116
5.37757
5.41564
5.458
5.49235
5.51969
5.53961
5.54476
5.52866
5.50333
5.49005
1.40001
1.40001
1.40001
1.40001
1.40001
1.40001
1.40001
1.40001
1.40001
1.40001
1.40001
1.40001
2.25272
4.92283
5.39821
5.40263
5.42403
5.43985
5.44589
5.4443
5.42199
5.38626
5.32253
5.28617
1.40001
1.40001
1.40001
1.40001
1.40001
1.40001
1.40001
1.40001
1.40001
1.40001
1.40001
1.40001
1.76113
4.65301
5.43595
5.39181
5.397
5.38881
5.36967
5.34028
5.27759
5.1707
4.85354
3.99483
1.40001
1.40001
1.40001
1.40001
1.40001
1.40001
1.40001
1.40001
1.40001
1.40001
1.40001
1.40001
1.43519
4.09725
5.36441
5.3152
5.33046
5.31751
5.28253
5.22522
5.12154
4.93028
4.59834
3.70239
1.40001
1.40001
1.40001
1.40001
1.40001
1.40001
1.40001
1.40001
1.40001
1.40001
1.40001
1.40001
1.40007
3.32121
5.12945
5.26515
5.283
5.25578
5.20296
5.11558
4.98003
4.74245
4.39256
3.56065
1.40001
1.40001
1.40001
1.40001
1.40001
1.40001
1.40001
1.40001
1.40001
1.40001
1.40001
1.40001
1.4
2.48839
4.89028
5.22468
5.21105
5.18803
5.12954
5.0205
4.85679
4.61025
4.22084
3.54476
1.40001
1.40001
1.40001
1.40001
1.40001
1.40001
1.40001
1.40001
1.40001
1.40001
1.40001
1.40001
1.4
1.70965
4.58531
5.28562
5.18005
5.11389
5.04095
4.92117
4.74638
4.5077
4.1055
3.57987
1.40001
1.40001
1.40001
1.40001
1.40001
1.40001
1.40001
1.40001
1.40001
1.40001
1.40001
1.40001
1.4
1.41772
3.78853
5.04731
5.04705
5.02309
4.9511
4.83071
4.6609
4.41161
4.04854
3.6266
1.40001
1.40001
1.40001
1.40001
1.40001
1.40001
1.40001
1.40001
1.40001
1.40001
1.40001
1.40001
1.40001
1.39986
2.66934
4.82185
5.03238
4.99374
4.90501
4.76731
4.59695
4.34712
4.03479
3.68646
1.40001
1.40001
1.40001
1.40001
1.40001
1.40001
1.40001
1.40001
1.40001
1.40001
1.40001
1.40001
1.40001
1.39997
1.67809
4.45246
5.09496
4.97408
4.85391
4.69781
4.52749
4.29172
4.0235
3.72775
1.40001
1.40001
1.40001
1.40001
1.40001
1.40001
1.40001
1.40001
1.40001
1.40001
1.40001
1.40001
1.40001
1.4
1.41078
3.45468
4.91668
4.88888
4.78793
4.64588
4.47373
4.25918
4.02336
3.76118
1.40001
1.40001
1.40001
1.40001
1.40001
1.40001
1.40001
1.40001
1.40001
1.40001
1.40001
1.40001
1.40001
1.4
1.39993
2.15185
4.71149
4.91931
4.78026
4.62872
4.45129
4.2459
4.02538
3.78614
1.40001
1.40001
1.40001
1.40001
1.40001
1.40001
1.40001
1.40001
1.40001
1.40001
1.40001
1.40001
1.40001
1.40001
1.39999
1.48823
3.83916
4.86469
4.7304
4.60274
4.43507
4.24238
4.03603
3.81642
1.40001
1.40001
1.40001
1.40001
1.40001
1.40001
1.40001
1.40001
1.40001
1.40001
1.40001
1.40001
1.40001
1.40001
1.4
1.40064
2.42261
4.61913
4.73936
4.6175
4.45366
4.26817
4.07268
3.86412
1.40001
1.40001
1.40001
1.40001
1.40001
1.40001
1.40001
1.40001
1.40001
1.40001
1.40001
1.40001
1.40001
1.40001
1.4
1.4
1.55466
3.8097
4.75491
4.62676
4.47049
4.29121
4.10213
3.90161
1.40001
1.40001
1.40001
1.40001
1.40001
1.40001
1.40001
1.40001
1.40001
1.40001
1.40001
1.40001
1.40001
1.40001
1.40001
1.4
1.40262
2.32776
4.4786
4.64265
4.49211
4.32226
4.14003
3.94912
1.40001
1.40001
1.40001
1.40001
1.40001
1.40001
1.40001
1.40001
1.40001
1.40001
1.40001
1.40001
1.40001
1.40001
1.40001
1.40001
1.40001
1.52302
3.57728
4.65705
4.51834
4.3527
4.17405
3.99403
1.40001
1.40001
1.40001
1.40001
1.40001
1.40001
1.40001
1.40001
1.40001
1.40001
1.40001
1.40001
1.40001
1.40001
1.40001
1.40001
1.40001
1.40185
2.12881
4.24956
4.53636
4.37539
4.21103
4.0406
1.40001
1.40001
1.40001
1.40001
1.40001
1.40001
1.40001
1.40001
1.40001
1.40001
1.40001
1.40001
1.40001
1.40001
1.40001
1.40001
1.40001
1.40001
1.47026
3.07487
4.4841
4.42497
4.269
4.10383
1.40001
1.40001
1.40001
1.40001
1.40001
1.40001
1.40001
1.40001
1.40001
1.40001
1.40001
1.40001
1.40001
1.40001
1.40001
1.40001
1.40001
1.40001
1.40094
1.81024
3.83762
4.47917
4.32944
4.15925
1.40001
1.40001
1.40001
1.40001
1.40001
1.40001
1.40001
1.40001
1.40001
1.40001
1.40001
1.40001
1.40001
1.40001
1.40001
1.40001
1.40001
1.40001
1.40001
1.42167
2.43381
4.1914
4.36799
4.21546
1.40001
1.40001
1.40001
1.40001
1.40001
1.40001
1.40001
1.40001
1.40001
1.40001
1.40001
1.40001
1.40001
1.40001
1.40001
1.40001
1.40001
1.40001
1.40001
1.40022
1.54297
3.14448
4.30472
4.27559
1.40001
1.40001
1.40001
1.40001
1.40001
1.40001
1.40001
1.40001
1.40001
1.40001
1.40001
1.40001
1.40001
1.40001
1.40001
1.40001
1.40001
1.40001
1.40001
1.40001
1.40346
1.85387
3.66164
4.29214
1.40001
1.40001
1.40001
1.40001
1.40001
1.40001
1.40001
1.40001
1.40001
1.40001
1.40001
1.40001
1.40001
1.40001
1.40001
1.40001
1.40001
1.40001
1.40001
1.40001
1.40003
1.42754
2.28611
3.95169
1.40001
1.40001
1.40001
1.40001
1.40001
1.40001
1.40001
1.40001
1.40001
1.40001
1.40001
1.40001
1.40001
1.40001
1.40001
1.40001
1.40001
1.40001
1.40001
1.40001
1.40001
1.40035
1.5041
2.7483
1.40001
1.40001
1.40001
1.40001
1.40001
1.40001
1.40001
1.40001
1.40001
1.40001
1.40001
1.40001
1.40001
1.40001
1.40001
1.40001
1.40001
1.40001
1.40001
1.40001
1.40001
1.40001
1.40234
1.65438
1.40001
1.40001
1.40001
1.40001
1.40001
1.40001
1.40001
1.40001
1.40001
1.40001
1.40001
1.40001
1.40001
1.40001
1.40001
1.40001
1.40001
1.40001
1.40001
1.40001
1.40001
1.40001
1.40002
1.41028
1.40001
1.40001
1.40001
1.40001
1.40001
1.40001
1.40001
1.40001
1.40001
1.40001
1.40001
1.40001
1.40001
1.40001
1.40001
1.40001
1.40001
1.40001
1.40001
1.40001
1.40001
1.40001
1.40001
1.4001
1.40001
1.40001
1.40001
1.40001
1.40001
1.40001
1.40001
1.40001
1.40001
1.40001
1.40001
1.40001
1.40001
1.40001
1.40001
1.40001
1.40001
1.40001
1.40001
1.40001
1.40001
1.40001
1.40001
1.40001
1.40001
1.40001
1.40001
1.40001
1.40001
1.40001
1.40001
1.40001
1.40001
1.40001
1.40001
1.40001
1.40001
1.40001
1.40001
1.40001
1.40001
1.40001
1.40001
1.40001
1.40001
1.40001
1.40001
1.40001
1.40001
1.40001
1.40001
1.40001
1.40001
1.40001
1.40001
1.40001
1.40001
1.40001
1.40001
1.40001
1.40001
1.40001
1.40001
1.40001
1.40001
1.40001
1.40001
1.40001
1.40001
1.40001
1.40001
1.40001
1.40001
1.40001
1.40001
1.40001
1.40001
1.40001
1.40001
1.40001
1.40001
1.40001
1.40001
1.40001
1.40001
1.40001
1.40001
1.40001
1.40001
1.40001
1.40001
1.40001
1.40001
1.40001
1.40001
1.40001
1.40001
1.40001
1.40001
1.40001
1.40001
1.40001
1.40001
1.40001
1.40001
1.40001
1.40001
1.40001
1.40001
1.40001
1.40001
1.40001
1.40001
1.40001
1.40001
1.40001
1.40001
1.40001
1.40001
1.40001
1.40001
1.40001
1.40001
1.40001
1.40001
1.40001
1.40001
1.40001
1.40001
1.40001
1.40001
1.40001
1.40001
1.40001
1.40001
1.40001
1.40001
1.40001
1.40001
1.40001
1.40001
1.40001
1.40001
1.40001
1.28566
0.487054
0.310071
0.22297
0.214663
0.252532
0.360591
0.465595
0.582882
0.683704
0.777374
0.874947
0.941667
0.968674
0.97491
0.980515
0.998203
1.0156
1.03457
1.05332
1.05893
1.06118
1.06276
1.06553
1.0664
1.06755
1.07127
1.07824
1.09422
1.11276
1.11507
1.67461
2.73735
2.99222
3.01633
3.05214
3.07446
3.08734
3.08208
3.06885
3.05643
3.04224
3.0196
2.98446
2.94544
2.91318
2.89341
2.88697
2.88773
2.86492
2.81928
2.76518
2.71022
2.66909
2.64017
2.63123
2.63441
2.62294
2.59029
2.54824
2.49545
2.45091
2.42109
2.398
2.3857
2.3759
2.35459
2.32597
2.28723
2.23813
2.20167
2.18026
2.16388
2.15495
2.14696
2.12766
2.10162
2.06245
2.01009
1.97096
1.94945
1.93419
1.9248
1.92494
1.92027
1.90563
1.88505
1.84735
1.79525
1.76349
1.74853
1.73703
1.72963
1.7206
1.70855
1.67202
2.01294
1.17405
0.876283
0.720732
0.573494
0.559586
0.574764
0.57214
0.572216
0.591715
0.630982
0.706043
0.800183
0.876042
0.913989
0.935273
0.960842
0.993726
1.03816
1.05984
1.06978
1.08046
1.08839
1.08966
1.08975
1.09094
1.09458
1.10002
1.10663
1.11588
1.12339
1.59632
2.85355
3.16563
3.12235
3.12693
3.13161
3.13447
3.11864
3.09616
3.0796
3.06948
3.06281
3.045
3.00561
2.95704
2.91312
2.88188
2.86982
2.86583
2.84753
2.81266
2.76913
2.71602
2.6696
2.63616
2.61597
2.60493
2.58948
2.56339
2.53305
2.4946
2.45294
2.41924
2.39282
2.36807
2.34629
2.32378
2.29539
2.26562
2.23105
2.19709
2.1734
2.15537
2.13584
2.11648
2.09559
2.06739
2.03437
1.99942
1.96741
1.94641
1.93341
1.92114
1.9089
1.89523
1.87712
1.85107
1.8158
1.77957
1.7543
1.73977
1.72836
1.71758
1.70615
1.6755
2.51409
1.84051
1.37912
1.13369
0.939854
0.82799
0.781959
0.741542
0.677329
0.671792
0.67691
0.714773
0.777647
0.828245
0.87098
0.910217
0.949237
0.996437
1.06211
1.09967
1.12367
1.14609
1.15181
1.14711
1.13813
1.14186
1.1527
1.15866
1.1547
1.15746
1.18553
1.53987
3.00213
3.47454
3.36283
3.30111
3.28268
3.27902
3.25677
3.22838
3.19776
3.17007
3.15577
3.15004
3.13201
3.09393
3.0445
2.98402
2.93139
2.89622
2.87751
2.86413
2.84368
2.81283
2.77056
2.71129
2.64962
2.60936
2.58365
2.57243
2.56827
2.55392
2.52797
2.49211
2.43976
2.38261
2.34445
2.31904
2.3033
2.29215
2.27378
2.24873
2.21139
2.16847
2.13779
2.11227
2.08637
2.0674
2.05348
2.03623
2.01475
1.98462
1.94966
1.92416
1.90562
1.88695
1.86688
1.84774
1.83075
1.81
1.78162
1.7521
1.73202
1.7171
1.70193
1.67373
2.83102
2.26988
1.85836
1.55493
1.3235
1.145
1.0372
0.963841
0.903927
0.859246
0.808729
0.772106
0.776651
0.77935
0.791901
0.822952
0.869598
0.933397
1.01021
1.06574
1.09291
1.11842
1.15094
1.1648
1.16787
1.18488
1.20818
1.20941
1.20653
1.23786
1.44023
1.82731
2.61431
3.42828
3.57195
3.53536
3.48367
3.42496
3.37941
3.35216
3.32164
3.28879
3.26067
3.23732
3.21568
3.18663
3.15138
3.10641
3.04552
2.98802
2.95208
2.9255
2.90428
2.88017
2.84767
2.8046
2.74693
2.68634
2.64633
2.62245
2.60879
2.59915
2.5795
2.55123
2.50962
2.45058
2.3916
2.3566
2.33624
2.32086
2.30774
2.289
2.26119
2.21374
2.15926
2.12296
2.10187
2.08717
2.07857
2.07051
2.05545
2.03404
1.99734
1.94811
1.9102
1.88581
1.86787
1.8555
1.84552
1.83228
1.81473
1.78486
1.74725
1.72014
1.70365
1.6829
3.06567
2.582
2.206
1.9067
1.63901
1.46576
1.32369
1.17692
1.07914
1.02243
0.959419
0.876528
0.843711
0.828157
0.815324
0.824489
0.83763
0.854396
0.883279
0.930528
0.978407
1.02925
1.09695
1.14089
1.15414
1.17659
1.19626
1.20676
1.2588
1.47362
1.92523
2.20154
2.31864
2.8091
3.31235
3.56419
3.58315
3.55006
3.48259
3.43523
3.40424
3.37367
3.33756
3.30775
3.27947
3.2546
3.22729
3.1939
3.14899
3.09012
3.02821
2.9842
2.95361
2.92488
2.89422
2.86028
2.82136
2.77536
2.72634
2.68691
2.65971
2.63654
2.61263
2.58383
2.54981
2.51041
2.46542
2.41814
2.38297
2.36088
2.34107
2.32001
2.29314
2.25339
2.202
2.16137
2.13887
2.12274
2.11224
2.10258
2.08704
2.06776
2.03589
1.98605
1.93289
1.90139
1.88679
1.87596
1.86738
1.85584
1.84069
1.81522
1.77137
1.73395
1.72107
1.70443
3.20754
2.80707
2.4649
2.17813
1.90741
1.70915
1.56775
1.4121
1.27272
1.19828
1.13616
1.05298
0.989449
0.955117
0.915694
0.895691
0.886152
0.873793
0.853504
0.852092
0.859856
0.885462
0.943338
1.02726
1.08754
1.1338
1.15424
1.19601
1.45202
1.88427
2.19478
2.33841
2.3499
2.40872
2.70191
3.20884
3.46288
3.5322
3.52414
3.48259
3.45159
3.41624
3.37994
3.33383
3.29467
3.26788
3.24315
3.21541
3.18461
3.14258
3.08389
3.02141
2.97548
2.94344
2.91606
2.89156
2.86599
2.83471
2.79277
2.7397
2.68963
2.65714
2.6313
2.60593
2.58144
2.55707
2.52695
2.48408
2.43223
2.39156
2.36472
2.34034
2.31351
2.28301
2.25104
2.21834
2.18483
2.15968
2.14353
2.12863
2.11124
2.08519
2.05182
2.01375
1.97396
1.93619
1.91056
1.89621
1.88445
1.8731
1.85934
1.83646
1.79742
1.75916
1.74423
1.7256
3.31977
2.97692
2.67285
2.39066
2.13605
1.93016
1.7632
1.61784
1.48145
1.37248
1.28248
1.20678
1.14576
1.09226
1.02897
0.974137
0.946913
0.924633
0.891106
0.862514
0.862274
0.868023
0.882311
0.912539
0.962822
1.01225
1.0814
1.2949
1.77658
2.10622
2.20797
2.30282
2.33766
2.33324
2.37294
2.60057
3.03075
3.35848
3.46684
3.49094
3.47802
3.44926
3.41421
3.36653
3.29812
3.24975
3.21968
3.20299
3.18705
3.15789
3.11891
3.06449
3.00162
2.95415
2.92449
2.90181
2.88071
2.85491
2.82477
2.78303
2.72664
2.67156
2.63751
2.61516
2.59788
2.5799
2.55776
2.52782
2.4816
2.42267
2.37542
2.34435
2.32066
2.30138
2.28417
2.26503
2.23982
2.20519
2.16422
2.12831
2.1011
2.07978
2.05723
2.03473
2.01205
1.984
1.94824
1.91903
1.90517
1.89272
1.87485
1.84923
1.82046
1.79286
1.77213
1.74595
3.40678
3.11037
2.83384
2.5552
2.32857
2.13396
1.94968
1.78411
1.66425
1.54462
1.43651
1.33824
1.28137
1.23096
1.16669
1.0866
1.04589
1.02963
1.00007
0.94696
0.909235
0.907211
0.90474
0.897833
0.903677
0.923058
1.08461
1.57179
1.88193
2.01383
2.07948
2.14532
2.22907
2.26178
2.28532
2.3231
2.47517
2.85575
3.24577
3.40594
3.46582
3.46324
3.43129
3.39106
3.32594
3.24903
3.20687
3.17976
3.16103
3.15211
3.12904
3.09567
3.04695
2.9802
2.92361
2.88979
2.86577
2.85489
2.8363
2.80949
2.77247
2.71658
2.65572
2.61951
2.59821
2.58359
2.56669
2.54413
2.51273
2.46184
2.39722
2.35547
2.33493
2.31904
2.30423
2.28713
2.26765
2.23891
2.19005
2.13487
2.09695
2.07271
2.05614
2.04366
2.03076
2.01402
1.98992
1.95442
1.91491
1.88415
1.86276
1.84662
1.83282
1.81821
1.80434
1.77344
3.4808
3.21559
2.95974
2.70547
2.49161
2.30045
2.1091
1.94994
1.81894
1.69601
1.58327
1.48872
1.40562
1.34059
1.29276
1.23034
1.14486
1.09768
1.07686
1.04499
0.99769
0.962345
0.93961
0.91911
0.927503
1.04744
1.42343
1.7978
1.82892
1.84905
1.87866
1.93525
2.01
2.07946
2.13035
2.16768
2.22726
2.35288
2.69753
3.12738
3.32376
3.42674
3.44028
3.39426
3.34868
3.28639
3.21911
3.17339
3.14839
3.13232
3.1237
3.10375
3.0722
3.02044
2.94261
2.88665
2.85923
2.8392
2.83222
2.81982
2.79416
2.75872
2.70194
2.63828
2.5991
2.57504
2.55638
2.54076
2.51938
2.48807
2.4419
2.38701
2.34193
2.3148
2.29672
2.28727
2.27304
2.24834
2.20781
2.15141
2.10258
2.07664
2.06123
2.04779
2.03679
2.02564
2.00965
1.98183
1.93182
1.88586
1.86351
1.85098
1.8406
1.83124
1.82141
1.79361
3.53946
3.29792
3.06182
2.83666
2.63187
2.43912
2.24925
2.09972
1.96723
1.83366
1.70952
1.62841
1.54425
1.44153
1.38643
1.34819
1.28631
1.19699
1.15192
1.13371
1.10223
1.05218
1.01684
1.01786
1.11242
1.43486
1.80498
1.90565
1.88567
1.86235
1.83384
1.82631
1.82956
1.84553
1.88783
1.94486
2.01754
2.07913
2.18411
2.47801
2.90115
3.23239
3.346
3.37973
3.36096
3.31535
3.26638
3.19636
3.14941
3.12143
3.10795
3.09625
3.07152
3.03814
2.98338
2.9081
2.85783
2.83318
2.81822
2.81141
2.79212
2.76681
2.73315
2.67623
2.61031
2.57237
2.54879
2.52819
2.50857
2.48806
2.46451
2.42427
2.36307
2.31819
2.29271
2.27131
2.25139
2.23142
2.20862
2.17559
2.13633
2.09819
2.0694
2.05148
2.03766
2.02546
2.01234
1.99183
1.95179
1.89919
1.87166
1.86023
1.85304
1.84884
1.83987
1.80857
3.59259
3.37631
3.15393
2.93943
2.75182
2.56681
2.37885
2.22712
2.0965
1.96802
1.83598
1.74499
1.66517
1.57352
1.47994
1.42915
1.38597
1.32185
1.24901
1.21061
1.17469
1.13557
1.11691
1.20463
1.52667
1.88449
2.00705
1.97569
1.94137
1.91753
1.89481
1.85702
1.82321
1.81755
1.81626
1.82754
1.8552
1.87328
1.88592
1.9401
2.14198
2.56979
2.9972
3.23066
3.3134
3.32868
3.2971
3.2426
3.16645
3.11609
3.08707
3.06964
3.0603
3.0358
3.00298
2.95127
2.88402
2.83773
2.81199
2.78987
2.77563
2.75949
2.73551
2.69859
2.64522
2.58534
2.54467
2.52043
2.50172
2.48705
2.46772
2.43743
2.39273
2.33898
2.29401
2.26331
2.23971
2.21868
2.19951
2.18325
2.16379
2.1349
2.09834
2.06452
2.03991
2.022
2.00557
1.98789
1.96423
1.93116
1.89744
1.87038
1.85193
1.83749
1.82706
1.79823
3.65122
3.44608
3.23405
3.03332
2.85307
2.66797
2.49349
2.35258
2.21738
2.07838
1.96061
1.86178
1.76694
1.68302
1.60139
1.5249
1.46115
1.41247
1.35812
1.29581
1.24605
1.23641
1.33252
1.69037
2.04592
2.1387
2.10111
2.05882
2.03768
2.01872
1.99148
1.95234
1.89288
1.84591
1.82966
1.82312
1.82492
1.83595
1.83186
1.81253
1.80335
1.87297
2.17643
2.65294
3.04213
3.23221
3.28463
3.2752
3.20827
3.13176
3.07586
3.04716
3.02869
3.02248
3.00122
2.97101
2.92676
2.86704
2.81405
2.78064
2.7546
2.73045
2.70933
2.69024
2.66334
2.61791
2.56275
2.52326
2.49606
2.47029
2.44489
2.42332
2.39983
2.36452
2.31589
2.26647
2.23447
2.21499
2.19968
2.18561
2.17103
2.1538
2.1284
2.08898
2.05026
2.02384
2.00269
1.98295
1.96489
1.94685
1.92277
1.88958
1.85778
1.83489
1.81775
1.78555
3.70051
3.50092
3.30107
3.11649
2.94144
2.76302
2.60289
2.46039
2.32239
2.18272
2.07629
1.97667
1.8722
1.77213
1.70089
1.63364
1.55695
1.49051
1.43554
1.38328
1.3615
1.47143
1.85827
2.25537
2.31385
2.2574
2.19376
2.16199
2.14365
2.11591
2.08366
2.04859
1.99315
1.92422
1.88904
1.86798
1.84968
1.83728
1.82972
1.81897
1.80696
1.76421
1.76299
1.88814
2.2725
2.7324
3.09248
3.20922
3.21526
3.17571
3.09892
3.04729
3.0164
2.99615
2.98571
2.96705
2.94139
2.90048
2.83845
2.78024
2.74411
2.7188
2.69649
2.67504
2.65444
2.63078
2.59067
2.53722
2.49429
2.46315
2.43639
2.41202
2.38996
2.36872
2.33918
2.29637
2.25214
2.2221
2.20421
2.1892
2.1768
2.16272
2.14251
2.11025
2.07005
2.0324
2.00277
1.98033
1.96415
1.94987
1.93266
1.90654
1.8712
1.83609
1.8099
1.77783
3.75712
3.56338
3.37364
3.20001
3.02855
2.85469
2.70488
2.56471
2.42157
2.28669
2.17853
2.07574
1.97385
1.87383
1.79526
1.72206
1.64788
1.57166
1.51251
1.50075
1.63082
2.03028
2.45079
2.51897
2.45872
2.37685
2.30129
2.26614
2.24305
2.21484
2.183
2.14947
2.10519
2.03815
1.97738
1.94423
1.91819
1.89204
1.86858
1.8485
1.82886
1.79577
1.74942
1.72955
1.75267
1.93799
2.36888
2.79329
3.0691
3.13355
3.13388
3.08195
3.02025
2.99114
2.97456
2.96038
2.93915
2.91256
2.8658
2.79737
2.74686
2.71733
2.69281
2.6707
2.65022
2.62936
2.60098
2.55306
2.50002
2.46304
2.43566
2.41164
2.39002
2.36921
2.34777
2.3196
2.27725
2.23794
2.21495
2.19628
2.1763
2.15321
2.13157
2.11173
2.08316
2.04205
2.00666
1.98517
1.96766
1.94959
1.93036
1.90937
1.88024
1.83798
1.80279
1.77643
3.81116
3.62543
3.44857
3.27866
3.10718
2.94505
2.80099
2.65942
2.51023
2.38715
2.27981
2.17223
2.06181
1.96733
1.88928
1.8139
1.72769
1.64977
1.64907
1.81105
2.21346
2.60423
2.69805
2.64214
2.57625
2.5094
2.42736
2.37085
2.33924
2.30777
2.27367
2.23848
2.20001
2.14808
2.07687
2.02361
1.99376
1.96704
1.93989
1.91173
1.88148
1.84962
1.80714
1.74953
1.72549
1.71988
1.76385
1.99249
2.41252
2.79597
3.02632
3.05626
3.04377
3.00063
2.98336
2.97232
2.94551
2.91845
2.87871
2.81334
2.76013
2.73053
2.70497
2.68029
2.65591
2.63057
2.59939
2.55472
2.50366
2.47025
2.44727
2.42474
2.40096
2.37719
2.3539
2.32736
2.29033
2.25081
2.22217
2.1988
2.1757
2.15333
2.13213
2.10778
2.07625
2.0386
2.00711
1.98739
1.97032
1.95257
1.93368
1.91211
1.88388
1.83991
1.8053
1.78515
3.86586
3.692
3.5233
3.35507
3.18516
3.03434
2.89155
2.74797
2.60187
2.4853
2.37322
2.2624
2.15255
2.06507
1.97939
1.89255
1.8043
1.82677
2.06514
2.50286
2.77951
2.85036
2.79119
2.73238
2.68983
2.6399
2.56725
2.48192
2.43222
2.39662
2.36155
2.32674
2.29063
2.24891
2.19277
2.12406
2.067
2.02838
1.99777
1.96941
1.94027
1.90847
1.87248
1.82828
1.77648
1.72583
1.71329
1.71411
1.77496
2.02571
2.43732
2.78394
2.97138
2.98795
3.01236
2.99949
2.96671
2.93718
2.88941
2.81866
2.76929
2.74303
2.71986
2.69698
2.67237
2.64411
2.60574
2.54718
2.49598
2.4744
2.45698
2.43867
2.41884
2.39558
2.36605
2.3286
2.28997
2.25662
2.22492
2.19841
2.17657
2.15657
2.1346
2.10812
2.07576
2.04069
2.01324
1.99143
1.97291
1.95549
1.93663
1.91548
1.88943
1.85131
1.82204
1.80475
3.93266
3.76488
3.59898
3.4304
3.26759
3.12065
2.97751
2.8309
2.69711
2.58083
2.46687
2.35073
2.24384
2.151
2.0653
1.9733
2.00986
2.31572
2.86549
3.0701
3.05536
2.97894
2.89642
2.85346
2.81402
2.76252
2.69713
2.60933
2.53174
2.48627
2.44762
2.40971
2.37129
2.33021
2.28224
2.22195
2.15542
2.10154
2.06109
2.0249
1.9911
1.96117
1.9345
1.90378
1.86268
1.8094
1.75668
1.71053
1.69902
1.70459
1.78341
2.04315
2.44977
2.75246
2.92498
2.97911
2.98491
2.96514
2.90889
2.84404
2.78381
2.74597
2.72413
2.7047
2.68515
2.66373
2.62765
2.56118
2.49855
2.47247
2.45529
2.44069
2.42557
2.408
2.38367
2.34543
2.29194
2.23837
2.20935
2.19183
2.17607
2.15948
2.14078
2.11917
2.09125
2.05172
2.00582
1.97593
1.95743
1.94063
1.92511
1.91045
1.8947
1.87519
1.85103
1.80855
3.9911
3.82625
3.66096
3.49697
3.34735
3.2015
3.05696
2.91258
2.79343
2.67347
2.55781
2.43679
2.32914
2.24131
2.15623
2.22757
2.58275
3.10989
3.34897
3.28557
3.18829
3.09272
3.01761
2.97181
2.92543
2.86833
2.80584
2.73316
2.64862
2.58034
2.5328
2.49094
2.44979
2.40755
2.36252
2.31116
2.24906
2.18142
2.12504
2.08279
2.04752
2.0149
1.98486
1.95453
1.92151
1.88071
1.83189
1.7822
1.73928
1.69798
1.68463
1.69418
1.78797
2.06312
2.42558
2.73898
2.88581
2.92703
2.92235
2.884
2.82329
2.76758
2.72327
2.70053
2.68915
2.67258
2.64202
2.59612
2.53775
2.48199
2.44884
2.43045
2.41797
2.40768
2.39076
2.35975
2.30448
2.23851
2.20085
2.18235
2.16838
2.15512
2.14133
2.12679
2.10798
2.06803
2.00586
1.96876
1.95141
1.93713
1.92419
1.91203
1.90058
1.88848
1.86945
1.81568
4.05021
3.89046
3.7283
3.57348
3.42914
3.28438
3.13546
3.00395
2.88438
2.76294
2.64226
2.51412
2.42155
2.35719
2.49009
2.9641
3.35495
3.56225
3.54403
3.44481
3.34368
3.23598
3.13497
3.07426
3.02549
2.97297
2.91604
2.85319
2.77751
2.69122
2.61801
2.56417
2.51852
2.47543
2.43251
2.3875
2.33612
2.27443
2.20701
2.14722
2.10093
2.06277
2.02966
1.99844
1.96765
1.93437
1.89464
1.85134
1.80638
1.76366
1.72399
1.68402
1.67031
1.68537
1.77747
2.05763
2.40294
2.70231
2.84468
2.86408
2.85134
2.80599
2.75693
2.70978
2.66331
2.64121
2.62593
2.60649
2.57265
2.5218
2.46992
2.4343
2.41043
2.39028
2.37406
2.35665
2.31933
2.26252
2.2098
2.18185
2.1663
2.154
2.146
2.13891
2.12204
2.08333
2.01908
1.97078
1.9518
1.93871
1.92792
1.92171
1.91582
1.90429
1.88214
1.82271
4.12797
3.96728
3.80787
3.65767
3.51283
3.36682
3.21937
3.09519
2.96563
2.84639
2.71179
2.60512
2.58696
2.80096
3.39995
3.77638
3.75686
3.72167
3.64038
3.56733
3.49066
3.39361
3.27973
3.18234
3.12195
3.07086
3.01638
2.95604
2.88881
2.81055
2.72381
2.6458
2.58631
2.53766
2.49243
2.4478
2.40206
2.35173
2.29395
2.23288
2.17662
2.12754
2.08453
2.04554
2.00986
1.97482
1.93762
1.89914
1.85794
1.82052
1.78301
1.7415
1.70438
1.67372
1.64984
1.66498
1.7691
2.04194
2.38841
2.65667
2.77172
2.79532
2.79657
2.75147
2.67613
2.63595
2.61552
2.59418
2.57367
2.54697
2.50397
2.4505
2.41036
2.38287
2.35766
2.33146
2.30787
2.27809
2.24012
2.2049
2.17976
2.16223
2.14517
2.1227
2.09759
2.07199
2.03371
1.99269
1.96542
1.94736
1.93341
1.92099
1.90739
1.89181
1.87292
1.82321
4.20727
4.04132
3.88397
3.73568
3.58979
3.43727
3.30357
3.17393
3.04198
2.91984
2.79221
2.84472
3.18878
3.73381
4.18341
4.16047
3.98874
3.81276
3.714
3.66417
3.61823
3.54128
3.44393
3.329
3.23249
3.16599
3.10678
3.04661
2.98324
2.91448
2.83643
2.75232
2.67599
2.61301
2.55816
2.50679
2.45785
2.41028
2.36051
2.30701
2.25141
2.19787
2.14922
2.10359
2.05992
2.01719
1.97592
1.93602
1.89668
1.85969
1.82478
1.79176
1.75824
1.71976
1.68504
1.65531
1.62366
1.64021
1.76334
2.04192
2.35147
2.58155
2.73238
2.73728
2.71138
2.66298
2.6238
2.5894
2.56524
2.54601
2.5183
2.47486
2.43046
2.39198
2.35754
2.32599
2.30175
2.28282
2.2616
2.23355
2.20134
2.17267
2.14727
2.12023
2.09029
2.05745
2.02953
2.00594
1.98144
1.95967
1.9411
1.92322
1.90395
1.88567
1.86982
1.82889
4.24337
4.12586
3.96554
3.81479
3.66865
3.51623
3.39015
3.24585
3.12701
3.03077
3.16855
3.66916
4.15231
4.39153
4.39434
4.27984
4.13244
3.95762
3.84892
3.79617
3.74967
3.67744
3.58706
3.47227
3.35484
3.27271
3.20516
3.13912
3.07287
3.00532
2.93355
2.8554
2.77546
2.70187
2.63697
2.57779
2.52229
2.4704
2.41941
2.36731
2.31236
2.25534
2.20149
2.15251
2.10839
2.06695
2.02739
1.9864
1.94211
1.8945
1.84917
1.81316
1.78309
1.75577
1.72696
1.68559
1.6471
1.61927
1.5921
1.61507
1.75
2.00557
2.33677
2.53698
2.63626
2.6573
2.64702
2.61111
2.57054
2.53357
2.5042
2.47914
2.44
2.40266
2.3741
2.34561
2.31736
2.29702
2.28199
2.26027
2.22648
2.18953
2.15396
2.12086
2.08753
2.05771
2.03331
2.0094
1.99013
1.97621
1.95947
1.93765
1.91226
1.88715
1.86204
1.82056
4.07664
4.19161
4.06352
3.90433
3.74328
3.60339
3.46961
3.33879
3.33845
3.60241
4.23031
4.63637
4.6698
4.63162
4.49085
4.38345
4.28832
4.15454
4.04216
3.96363
3.8878
3.80409
3.71078
3.60026
3.48423
3.39292
3.31768
3.24542
3.1724
3.098
3.02161
2.9418
2.8602
2.7832
2.7153
2.65467
2.59716
2.5411
2.48404
2.42413
2.36215
2.29908
2.23888
2.18558
2.14088
2.10184
2.06596
2.0287
1.98743
1.94062
1.89073
1.84408
1.80065
1.76094
1.72625
1.69839
1.67448
1.63341
1.59227
1.56909
1.54724
1.5805
1.71602
1.99526
2.27567
2.51327
2.58104
2.58293
2.56628
2.51819
2.47387
2.44183
2.42809
2.41949
2.4043
2.37905
2.34634
2.3122
2.27818
2.24197
2.20485
2.17027
2.1419
2.11381
2.08784
2.06774
2.04494
2.02157
2.00051
1.97606
1.9476
1.92236
1.89869
1.87844
1.85847
1.82714
3.16177
4.11219
4.12483
4.00453
3.81652
3.69169
3.5768
3.71773
4.18887
4.74125
5.11936
5.07994
4.90148
4.77634
4.65972
4.5651
4.4733
4.35024
4.22482
4.12589
4.03304
3.93784
3.83892
3.73113
3.61665
3.5163
3.43303
3.35507
3.27714
3.19705
3.1129
3.02332
2.93205
2.8484
2.77738
2.71611
2.65835
2.6013
2.5426
2.47837
2.40974
2.34078
2.27454
2.21803
2.17315
2.13347
2.0954
2.05589
2.01394
1.96817
1.91764
1.86762
1.82082
1.7803
1.74461
1.70943
1.67457
1.64432
1.61935
1.57751
1.53212
1.50665
1.49345
1.54214
1.6905
1.97688
2.24816
2.45664
2.51031
2.50089
2.47005
2.44085
2.4166
2.39895
2.37855
2.34955
2.31614
2.28262
2.25141
2.21698
2.18248
2.15575
2.13504
2.11607
2.09542
2.06279
2.04
2.03084
2.01151
1.98036
1.94578
1.92063
1.90126
1.88111
1.86076
1.85809
1.87853
3.44748
4.11555
4.05504
3.89384
3.87509
4.22655
4.95359
5.33742
5.42124
5.4159
5.29204
5.11296
4.97229
4.88487
4.7839
4.66112
4.52552
4.38615
4.27049
4.17142
4.07381
3.97324
3.8655
3.74812
3.63359
3.53423
3.44535
3.36022
3.27573
3.18847
3.09575
2.99988
2.91058
2.83431
2.76845
2.70604
2.64554
2.58464
2.51954
2.44787
2.37821
2.31247
2.25402
2.20619
2.16333
2.12177
2.07849
2.03171
1.98061
1.92678
1.87645
1.82987
1.7883
1.75035
1.71496
1.68183
1.64872
1.61301
1.57441
1.53703
1.50223
1.47773
1.46946
1.46479
1.52132
1.69078
1.98169
2.20306
2.3659
2.40975
2.41871
2.41524
2.40389
2.3758
2.34184
2.30904
2.26822
2.21068
2.17173
2.1607
2.15274
2.14085
2.12695
2.10516
2.07142
2.03831
2.00294
1.97574
1.95663
1.94131
1.92256
1.91223
1.90063
1.91367
2.04862
1.43151
2.12301
3.71106
3.92524
4.17203
4.87079
5.67903
6.00771
5.84943
5.69093
5.54835
5.44647
5.30701
5.15528
5.05469
4.95224
4.82141
4.68459
4.54704
4.4171
4.30497
4.20109
4.0942
3.97784
3.85177
3.72805
3.61934
3.52343
3.43302
3.34388
3.25313
3.15823
3.05915
2.96382
2.88493
2.82632
2.77141
2.71046
2.64575
2.57484
2.4947
2.41386
2.35017
2.30198
2.25704
2.21262
2.16735
2.11949
2.06872
2.01557
1.96202
1.91167
1.86352
1.81883
1.77746
1.7389
1.70223
1.66362
1.62031
1.58423
1.55647
1.52574
1.49573
1.46305
1.44001
1.42145
1.4289
1.50172
1.69249
1.95558
2.13205
2.25688
2.34189
2.34643
2.3461
2.33779
2.31139
2.25901
2.1975
2.14917
2.12699
2.11576
2.10507
2.09536
2.08479
2.07219
2.04237
1.99151
1.95449
1.94387
1.93581
1.93439
1.96462
2.06979
2.24187
2.52813
1.40042
1.47473
2.40657
3.43252
5.54628
6.36309
6.38325
6.25054
6.01397
5.8211
5.69819
5.60957
5.48286
5.31625
5.18039
5.0803
4.95872
4.81956
4.68204
4.54522
4.41548
4.29495
4.17515
4.05099
3.92329
3.7983
3.68279
3.578
3.47992
3.3837
3.28645
3.1873
3.08835
2.99357
2.90636
2.82637
2.75417
2.68666
2.61949
2.54968
2.47636
2.40512
2.34016
2.28242
2.23124
2.18178
2.13114
2.07931
2.02875
1.97973
1.93171
1.88508
1.839
1.79626
1.7539
1.71246
1.67362
1.63839
1.60665
1.5764
1.55034
1.52257
1.49533
1.46566
1.43961
1.41416
1.39971
1.39006
1.40767
1.48855
1.68338
1.93791
2.12673
2.17665
2.23617
2.26847
2.25881
2.2351
2.19073
2.12875
2.09767
2.08781
2.07905
2.06882
2.05595
2.03946
2.01457
1.97384
1.94935
1.9517
1.98651
2.11307
2.32375
2.57943
2.79322
2.86524
1.40001
1.4017
1.52735
3.49431
6.64835
6.68405
6.32762
6.13635
5.98943
5.85934
5.76142
5.66047
5.52234
5.3597
5.22039
5.11243
5.00949
4.8981
4.77177
4.63759
4.50157
4.37311
4.24818
4.12179
3.99302
3.86398
3.74055
3.62681
3.5213
3.42016
3.32054
3.22132
3.12333
3.02792
2.93475
2.84195
2.7589
2.68392
2.6125
2.54436
2.48182
2.42077
2.35579
2.29221
2.23333
2.17735
2.1226
2.06833
2.01703
1.96961
1.92572
1.88339
1.84002
1.7965
1.75039
1.70582
1.6644
1.63089
1.60802
1.58533
1.55991
1.53264
1.50689
1.48275
1.45626
1.42744
1.40208
1.37303
1.35918
1.34628
1.37402
1.46816
1.66996
1.88863
2.06713
2.16053
2.17725
2.17255
2.14165
2.09285
2.06072
2.04238
2.03117
2.02402
2.0188
2.01904
2.00738
1.99842
2.03123
2.15258
2.37576
2.62053
2.82402
2.98233
3.02417
2.99507
1.40001
1.40001
1.40379
3.79294
6.18633
6.10345
5.87398
5.79232
5.74537
5.68379
5.62501
5.54315
5.43355
5.31041
5.17973
5.05752
4.9364
4.80571
4.67162
4.53935
4.40471
4.27323
4.14618
4.0189
3.89063
3.76311
3.6403
3.5258
3.41958
3.31927
3.22288
3.12938
3.03891
2.95249
2.87155
2.79523
2.72109
2.64604
2.56938
2.49448
2.42426
2.36032
2.3022
2.25123
2.20409
2.15537
2.10386
2.04901
1.99308
1.93917