/*--------------------------------*- C++ -*----------------------------------*\
  =========                 |
  \\      /  F ield         | OpenFOAM: The Open Source CFD Toolbox
   \\    /   O peration     | Website:  https://openfoam.org
    \\  /    A nd           | Version:  7
     \\/     M anipulation  |
\*---------------------------------------------------------------------------*/
FoamFile
{
    version     2.0;
    format      ascii;
    class       volScalarField;
    location    "3";
    object      p;
}
// * * * * * * * * * * * * * * * * * * * * * * * * * * * * * * * * * * * * * //

dimensions      [1 -1 -2 0 0 0 0];

internalField   nonuniform List<scalar> 
4032
(
1
1
1
1
1
1
1
1
1
1
1
1.09996
6.85901
10.5843
10.744
10.9426
11.1302
11.3092
11.4767
11.6307
11.7697
11.8834
11.9721
12.0362
1
1
1
1
1
1
1
1
1
1
1
1.04684
6.69365
10.5519
10.7167
10.9151
11.1027
11.2789
11.4418
11.5888
11.7194
11.8245
11.9047
11.9638
1
1
1
1
1
1
1
1
1
1
1
1.00237
6.34645
10.5025
10.6735
10.867
11.0516
11.2221
11.3784
11.5177
11.6412
11.7413
11.816
11.8762
1
1
1
1
1
1
1
1
1
1
1
1.00002
5.82093
10.3933
10.6031
10.79
10.9728
11.1376
11.2878
11.4199
11.534
11.6201
11.675
11.7142
1
1
1
1
1
1
1
1
1
1
1
1
5.13381
10.2114
10.5167
10.6936
10.869
11.0198
11.152
11.2616
11.3516
11.4209
11.4647
11.5212
1
1
1
1
1
1
1
1
1
1
1
1
4.30978
9.91663
10.4109
10.5749
10.7358
10.8663
10.9785
11.0706
11.1458
11.2013
11.213
11.1743
1
1
1
1
1
1
1
1
1
1
1
1
3.39676
9.46293
10.3335
10.4775
10.616
10.7157
10.7875
10.8347
10.8469
10.7995
10.727
10.6802
1
1
1
1
1
1
1
1
1
1
1
1
2.40136
8.74737
10.2666
10.3715
10.4823
10.5507
10.5788
10.5735
10.5143
10.4173
10.2799
10.2543
1
1
1
1
1
1
1
1
1
1
1
1
1.44559
7.80623
10.2587
10.2251
10.3081
10.3428
10.3223
10.2648
10.1117
9.8368
9.06132
7.18264
1
1
1
1
1
1
1
1
1
1
1
1
1.02599
6.48888
9.97106
9.92029
10.0163
10.0549
10.0161
9.90757
9.66642
9.19601
8.39371
6.31896
1
1
1
1
1
1
1
1
1
1
1
1
1
4.70018
9.45034
9.79862
9.86588
9.83243
9.74229
9.56424
9.25496
8.68617
7.84482
5.90457
1
1
1
1
1
1
1
1
1
1
1
1
0.999997
2.8357
8.64444
9.65376
9.63896
9.60126
9.48578
9.24644
8.87481
8.30256
7.37098
5.8035
1
1
1
1
1
1
1
1
1
1
1
1
0.999999
1.34801
7.50636
9.74203
9.49635
9.36997
9.21008
8.94041
8.53999
7.98781
7.05123
5.86235
1
1
1
1
1
1
1
1
1
1
1
1
1
1.0132
5.66764
9.05064
9.11787
9.091
8.93436
8.66062
8.27569
7.69987
6.86944
5.9297
1
1
1
1
1
1
1
1
1
1
1
1
1
0.999892
3.13715
8.25778
9.01914
8.94876
8.76001
8.46283
8.08056
7.50556
6.79653
6.01972
1
1
1
1
1
1
1
1
1
1
1
1
1
0.999973
1.33762
6.92785
9.00793
8.80735
8.57445
8.25935
7.8844
7.35096
6.74318
6.07474
1
1
1
1
1
1
1
1
1
1
1
1
1
0.999995
1.01024
4.61047
8.44269
8.55569
8.37165
8.09437
7.72386
7.24514
6.71179
6.12249
1
1
1
1
1
1
1
1
1
1
1
1
1
1
0.999948
1.89822
7.48015
8.55237
8.276
7.98221
7.60108
7.15115
6.66585
6.13891
1
1
1
1
1
1
1
1
1
1
1
1
1
1
0.999987
1.06493
5.39386
8.26314
8.08347
7.82405
7.47518
7.06098
6.61826
6.14934
1
1
1
1
1
1
1
1
1
1
1
1
1
1
0.999998
1.00023
2.35227
7.36322
8.04959
7.75776
7.41309
7.0262
6.62053
6.19162
1
1
1
1
1
1
1
1
1
1
1
1
1
1
1
1
1.13319
5.36919
7.90837
7.66243
7.33644
6.97959
6.60191
6.20499
1
1
1
1
1
1
1
1
1
1
1
1
1
1
1
1
1.00139
2.27374
6.87666
7.63198
7.30399
6.96885
6.60562
6.23001
1
1
1
1
1
1
1
1
1
1
1
1
1
1
1
1
1
1.11865
4.77641
7.50182
7.25964
6.93172
6.58451
6.23537
1
1
1
1
1
1
1
1
1
1
1
1
1
1
1
1
1
1.00133
1.97007
6.23414
7.2272
6.8895
6.58297
6.2643
1
1
1
1
1
1
1
1
1
1
1
1
1
1
1
1
1
1
1.0692
3.64797
6.87585
6.89817
6.61298
6.30964
1
1
1
1
1
1
1
1
1
1
1
1
1
1
1
1
1
1
1.00076
1.48798
5.20668
6.93089
6.64918
6.34466
1
1
1
1
1
1
1
1
1
1
1
1
1
1
1
1
1
1
1
1.01985
2.42638
5.98111
6.6583
6.36282
1
1
1
1
1
1
1
1
1
1
1
1
1
1
1
1
1
1
1
1.00017
1.14609
3.68792
6.28703
6.41348
1
1
1
1
1
1
1
1
1
1
1
1
1
1
1
1
1
1
1
1
1.00287
1.52849
4.67788
6.32889
1
1
1
1
1
1
1
1
1
1
1
1
1
1
1
1
1
1
1
1
1.00001
1.02421
2.13719
5.28424
1
1
1
1
1
1
1
1
1
1
1
1
1
1
1
1
1
1
1
1
1
1.00025
1.09908
2.85663
1
1
1
1
1
1
1
1
1
1
1
1
1
1
1
1
1
1
1
1
1
1
1.0018
1.25968
1
1
1
1
1
1
1
1
1
1
1
1
1
1
1
1
1
1
1
1
1
1
1.00001
1.00802
1
1
1
1
1
1
1
1
1
1
1
1
1
1
1
1
1
1
1
1
1
1
1
1.00006
1
1
1
1
1
1
1
1
1
1
1
1
1
1
1
1
1
1
1
1
1
1
1
1
1
1
1
1
1
1
1
1
1
1
1
1
1
1
1
1
1
1
1
1
1
1
1
1
1
1
1
1
1
1
1
1
1
1
1
1
1
1
1
1
1
1
1
1
1
1
1
1
1
1
1
1
1
1
1
1
1
1
1
1
1
1
1
1
1
1
1
1
1
1
1
1
1
1
1
1
1
1
1
1
1
1
1
1
1
1
1
1
1
1
1
1
1
1
1
1
1
1
1
1
1
1
1
1
1
1
1
1
1
1
1
1
1
1
1
1
1
1
1
1
1.5714
0.487008
0.172084
0.12679
0.160197
0.241695
0.337087
0.48282
0.697295
0.826209
0.942894
1.04677
1.06461
1.0888
1.16728
1.2476
1.28716
1.29366
1.29968
1.30351
1.2937
1.27423
1.27164
1.2814
1.29733
1.31915
1.32496
1.3235
1.32067
1.32438
1.33118
1.33606
1.77921
4.92158
6.34999
6.34191
6.32185
6.2994
6.24965
6.1644
6.05196
5.92971
5.83034
5.7496
5.66422
5.55437
5.42047
5.28276
5.16272
5.07257
5.01273
4.96434
4.88715
4.77967
4.6631
4.54722
4.45001
4.37272
4.32699
4.29591
4.24599
4.17644
4.09548
3.99929
3.90331
3.82299
3.75765
3.70413
3.66569
3.62221
3.56746
3.49707
3.39382
3.28337
3.20626
3.15588
3.11509
3.09056
3.08295
3.0559
3.01892
2.9804
2.92725
2.84658
2.74753
2.66898
2.6295
2.60138
2.57421
2.55013
2.52466
2.49502
2.46244
2.4132
2.33654
2.24118
2.71708
1.44374
0.960535
0.62268
0.532011
0.53727
0.51997
0.50826
0.524761
0.559639
0.61328
0.712304
0.82858
0.913057
0.983824
1.06214
1.15119
1.19509
1.22603
1.25721
1.26798
1.27745
1.27386
1.27449
1.28102
1.30119
1.32642
1.33446
1.33453
1.31854
1.30899
1.31707
1.56673
4.78591
6.53654
6.44005
6.26824
6.23043
6.19211
6.12321
6.00386
5.8735
5.76213
5.68161
5.61945
5.54975
5.44926
5.32021
5.19036
5.0776
4.99073
4.93265
4.88156
4.80881
4.71713
4.61446
4.50316
4.40652
4.33174
4.26546
4.20209
4.13827
4.06941
3.99745
3.92063
3.83468
3.75156
3.68588
3.63073
3.58232
3.53873
3.48429
3.41447
3.33603
3.25191
3.17806
3.12879
3.09272
3.06422
3.03273
2.99478
2.95393
2.90806
2.8474
2.77002
2.68662
2.62934
2.5974
2.56933
2.54248
2.51751
2.48987
2.45935
2.41594
2.35446
2.25766
3.65257
2.3524
1.71272
1.25443
0.955786
0.841789
0.768287
0.638499
0.59151
0.591645
0.59731
0.644663
0.728173
0.808211
0.85785
0.903927
0.993305
1.08235
1.15011
1.21275
1.2654
1.2946
1.30452
1.29634
1.29653
1.30445
1.32228
1.33425
1.33695
1.33
1.33284
1.43361
1.94361
3.97067
6.29504
6.51939
6.30611
6.21374
6.15679
6.12576
6.02111
5.91775
5.79724
5.68259
5.58953
5.51053
5.43454
5.34374
5.23695
5.11807
4.99502
4.89993
4.8286
4.76675
4.70224
4.63635
4.56581
4.48229
4.3797
4.2655
4.17012
4.09575
4.03378
3.98007
3.92651
3.86681
3.79053
3.69286
3.59916
3.53384
3.47693
3.42939
3.39624
3.35825
3.31227
3.2492
3.16401
3.08984
3.04516
3.00516
2.96295
2.91818
2.86972
2.82437
2.77943
2.72092
2.64458
2.58961
2.56052
2.53481
2.50762
2.47734
2.44192
2.39988
2.35821
2.28235
4.23678
3.13129
2.41673
1.90117
1.50197
1.26623
1.10602
0.937447
0.861648
0.820264
0.761069
0.701721
0.703199
0.720687
0.737412
0.757363
0.817245
0.918065
1.00772
1.08712
1.14997
1.19111
1.24467
1.2744
1.29441
1.31047
1.32808
1.34635
1.34593
1.35199
1.44221
1.96159
2.75905
3.27765
4.7252
5.90049
6.21804
6.30353
6.17006
6.07611
5.95075
5.86173
5.77391
5.66058
5.54842
5.4631
5.38706
5.31465
5.22641
5.12984
5.01337
4.88948
4.79912
4.73334
4.67446
4.62003
4.56297
4.49206
4.40421
4.28348
4.14887
4.05801
3.99993
3.94748
3.89821
3.85053
3.79709
3.72133
3.61002
3.50653
3.44683
3.40695
3.37541
3.35227
3.32559
3.28199
3.21802
3.1234
3.03467
2.97564
2.9266
2.87808
2.8362
2.80636
2.77754
2.74158
2.6852
2.60493
2.54673
2.51859
2.49189
2.46066
2.42452
2.38643
2.35683
2.30141
4.68025
3.73277
3.03718
2.43638
2.02199
1.74159
1.48887
1.2508
1.11522
1.02577
0.950839
0.863724
0.778763
0.75837
0.760562
0.770647
0.773288
0.786404
0.818803
0.872704
0.951537
1.03863
1.13268
1.20266
1.23724
1.25084
1.27901
1.29622
1.31908
1.4405
1.94634
2.73344
3.33337
3.32828
3.54105
4.45178
5.42247
6.0264
6.13692
6.08588
5.97961
5.85667
5.7633
5.64475
5.52332
5.44449
5.3634
5.2913
5.21473
5.13444
5.04627
4.93069
4.80308
4.71579
4.65582
4.59882
4.54111
4.47638
4.40167
4.30107
4.16378
4.04257
3.9738
3.92208
3.87383
3.825
3.77277
3.70798
3.61087
3.49558
3.43133
3.39574
3.36523
3.34327
3.31748
3.27865
3.23047
3.15474
3.04415
2.94921
2.89083
2.84775
2.81428
2.78859
2.7642
2.73807
2.70444
2.64816
2.56812
2.50559
2.46894
2.43615
2.40313
2.37288
2.35254
2.30986
4.97448
4.16538
3.51342
2.92299
2.45691
2.13592
1.8541
1.5976
1.4216
1.27098
1.17302
1.10488
1.00265
0.901858
0.876179
0.864659
0.836304
0.810151
0.789382
0.790978
0.805933
0.846265
0.918225
1.02745
1.12263
1.16532
1.2183
1.23796
1.32616
1.90135
2.70207
3.16453
3.42056
3.40319
3.35357
3.47068
4.05718
5.12234
5.77834
5.91739
5.98494
5.8828
5.78225
5.63276
5.47007
5.36019
5.28153
5.2256
5.17854
5.10887
5.03299
4.93573
4.79564
4.67406
4.60385
4.54391
4.49112
4.43659
4.37436
4.29928
4.19477
4.06485
3.95934
3.89441
3.84462
3.79869
3.75202
3.69965
3.63115
3.53446
3.43468
3.38008
3.34485
3.31644
3.29272
3.26086
3.21904
3.16219
3.07533
2.96282
2.8754
2.82905
2.7976
2.77034
2.74539
2.72188
2.69736
2.66341
2.60115
2.51233
2.44776
2.41175
2.38696
2.36657
2.34996
2.31165
5.21027
4.51346
3.89167
3.31039
2.86263
2.49771
2.17874
1.91844
1.73013
1.54183
1.38128
1.30387
1.23304
1.12975
1.00405
0.947221
0.913072
0.875761
0.843652
0.814238
0.807778
0.81127
0.823859
0.86006
0.92376
0.99283
1.07045
1.18251
1.68129
2.58396
3.04912
3.2288
3.34088
3.3698
3.35067
3.30543
3.34694
3.7658
4.72802
5.41065
5.78974
5.86356
5.77785
5.63603
5.47148
5.321
5.22241
5.1613
5.1258
5.07046
4.99962
4.92105
4.80688
4.66549
4.56195
4.49252
4.4358
4.38826
4.33541
4.27313
4.1964
4.09758
3.98337
3.88589
3.81878
3.76948
3.72604
3.68185
3.6319
3.56536
3.47064
3.37552
3.32358
3.28857
3.25936
3.23034
3.19288
3.14707
3.08747
3.00157
2.89595
2.81935
2.78158
2.75536
2.73106
2.70805
2.68419
2.65612
2.60819
2.52159
2.43458
2.39426
2.37273
2.3542
2.34354
2.3072
5.38047
4.76626
4.17354
3.63072
3.21295
2.84483
2.47479
2.20957
2.00712
1.82097
1.62568
1.49524
1.41011
1.32212
1.22598
1.11447
1.03885
1.00052
0.969837
0.934318
0.893734
0.849698
0.836257
0.8412
0.843191
0.857715
0.917856
1.32072
2.22646
2.68638
2.91898
3.00398
3.0902
3.19199
3.23205
3.24452
3.21148
3.1998
3.48889
4.2789
5.15901
5.65427
5.68087
5.59703
5.48067
5.36481
5.22972
5.1383
5.07037
5.00864
4.94683
4.88111
4.80086
4.69366
4.57653
4.47283
4.39084
4.32884
4.27598
4.22517
4.1682
4.10196
4.02226
3.92486
3.82012
3.73968
3.68933
3.64888
3.60894
3.56479
3.50385
3.41447
3.317
3.25245
3.21125
3.17934
3.15148
3.11911
3.07962
3.02423
2.94313
2.85134
2.78573
2.74214
2.71426
2.6947
2.67483
2.64359
2.59785
2.52927
2.45277
2.39606
2.364
2.34193
2.33011
2.29868
5.51355
4.95089
4.41241
3.9161
3.49522
3.11484
2.7573
2.49376
2.26948
2.04431
1.84858
1.72123
1.59705
1.47016
1.39135
1.30676
1.20285
1.10976
1.06605
1.03827
1.00841
0.966313
0.899851
0.857882
0.853223
0.885492
1.16347
1.92059
2.3848
2.46741
2.51268
2.59606
2.71426
2.84254
2.93418
3.01627
3.04791
3.05192
3.09387
3.28224
3.88827
4.80575
5.27148
5.45893
5.47023
5.40433
5.30586
5.16959
5.038
4.93967
4.87472
4.81584
4.76125
4.69879
4.62351
4.52065
4.3957
4.29083
4.22115
4.1674
4.12059
4.07337
4.02139
3.9538
3.85757
3.74542
3.66276
3.61383
3.57432
3.53624
3.49502
3.43652
3.34253
3.24326
3.18454
3.14565
3.11118
3.07897
3.0465
3.01182
2.96628
2.89583
2.80447
2.73529
2.69609
2.66182
2.62457
2.58744
2.55079
2.51543
2.47583
2.42924
2.37964
2.34435
2.32819
2.2956
5.59815
5.09271
4.59703
4.12981
3.73741
3.36663
3.01297
2.72974
2.49551
2.27359
2.07709
1.92826
1.78094
1.63518
1.53755
1.46466
1.3861
1.28326
1.17484
1.13263
1.12328
1.09614
1.02456
0.951257
0.965248
1.19701
1.84894
2.43181
2.46728
2.43189
2.39151
2.37713
2.37566
2.4052
2.46254
2.54697
2.67012
2.79153
2.87675
2.90885
3.01218
3.44773
4.21761
4.91481
5.22906
5.39296
5.33591
5.21482
5.06651
4.89533
4.81175
4.75607
4.71676
4.68126
4.62944
4.56052
4.44869
4.29826
4.18438
4.11767
4.06769
4.02446
3.98146
3.93532
3.87509
3.77947
3.66238
3.58404
3.53977
3.50152
3.46365
3.4202
3.36028
3.27097
3.17472
3.1123
3.07389
3.04346
3.01574
2.98709
2.95519
2.90881
2.8292
2.73519
2.67083
2.62803
2.59057
2.55272
2.51981
2.49552
2.47285
2.44665
2.4105
2.36384
2.32702
2.26852
5.67251
5.21086
4.75431
4.33209
3.94886
3.56459
3.23178
2.97371
2.72555
2.46559
2.28069
2.12644
1.9737
1.82255
1.69848
1.59184
1.51414
1.44853
1.37375
1.27006
1.18904
1.15442
1.11453
1.12008
1.3436
1.98272
2.57925
2.6486
2.56492
2.47708
2.42414
2.38322
2.34591
2.32103
2.29984
2.28878
2.31561
2.38779
2.46064
2.52568
2.56384
2.63601
2.93438
3.65899
4.47596
5.01391
5.19246
5.19111
5.08706
4.91097
4.7687
4.70347
4.6638
4.63878
4.60015
4.54583
4.46887
4.3385
4.17564
4.07153
4.0189
3.97832
3.9413
3.89979
3.85411
3.79162
3.69138
3.5774
3.50632
3.464
3.42718
3.39082
3.34886
3.2894
3.19896
3.10448
3.04644
3.01104
2.98273
2.95667
2.92859
2.89257
2.83318
2.74379
2.65583
2.59827
2.55934
2.52951
2.50723
2.4875
2.46718
2.44539
2.41884
2.37607
2.32096
2.23764
5.75189
5.31213
4.88452
4.48865
4.11712
3.75626
3.44084
3.167
2.91243
2.66523
2.48274
2.31521
2.13493
1.97728
1.87567
1.76835
1.6194
1.54561
1.51037
1.4364
1.319
1.24225
1.25772
1.4909
2.19561
2.81266
2.88287
2.78932
2.698
2.64068
2.58875
2.52117
2.43689
2.34111
2.28398
2.25503
2.24301
2.23665
2.23487
2.23313
2.22686
2.22916
2.26109
2.43872
3.0224
3.86229
4.62692
4.95345
5.0164
4.95891
4.78836
4.67181
4.61258
4.57805
4.56147
4.51241
4.4438
4.34409
4.20715
4.06235
3.97859
3.9318
3.89261
3.85445
3.81113
3.76543
3.70181
3.60376
3.50162
3.43315
3.38851
3.35177
3.31551
3.27245
3.20968
3.12323
3.04299
2.99102
2.9541
2.92138
2.88872
2.85253
2.80732
2.74242
2.6605
2.58524
2.54219
2.51974
2.50003
2.48045
2.46067
2.43946
2.41376
2.37081
2.30706
2.21128
5.7975
5.38048
4.98615
4.62767
4.26793
3.91842
3.62936
3.36351
3.09597
2.85296
2.65875
2.48571
2.31606
2.13875
2.01479
1.91349
1.79186
1.66735
1.60015
1.53421
1.44758
1.45062
1.70269
2.46502
3.12227
3.15587
3.03821
2.92447
2.87025
2.81498
2.74336
2.66231
2.5719
2.47243
2.38104
2.30946
2.25885
2.22511
2.1974
2.18715
2.18022
2.14456
2.08873
2.03497
2.07624
2.34278
3.04844
3.8634
4.5961
4.78515
4.76963
4.70383
4.60659
4.52204
4.45009
4.38722
4.34208
4.29433
4.21406
4.10847
4.00022
3.91374
3.85669
3.81499
3.78096
3.7385
3.68226
3.6054
3.51986
3.4354
3.36442
3.3133
3.2753
3.23899
3.19397
3.13218
3.05522
2.98366
2.92987
2.88763
2.84892
2.80935
2.76688
2.71986
2.66324
2.59863
2.54622
2.51578
2.49355
2.47262
2.45201
2.42603
2.39199
2.34476
2.2809
2.18619
5.84815
5.45888
5.09278
4.74975
4.40466
4.08215
3.80062
3.53012
3.25434
3.03833
2.83755
2.64225
2.45416
2.30795
2.1646
2.03574
1.93664
1.82646
1.70736
1.61892
1.63885
1.93656
2.76867
3.48375
3.5057
3.36537
3.20187
3.10407
3.04092
2.96794
2.89157
2.8157
2.73282
2.63671
2.52859
2.42223
2.34669
2.28818
2.23788
2.19326
2.15745
2.12707
2.09488
2.05327
1.97437
1.92505
1.98352
2.32432
3.09158
3.92122
4.4323
4.63651
4.62073
4.51541
4.40357
4.29483
4.2266
4.18011
4.14745
4.10359
4.04538
3.96441
3.87117
3.78437
3.70909
3.64939
3.60051
3.55978
3.51488
3.45571
3.38229
3.30266
3.23752
3.19505
3.1598
3.11758
3.06003
2.98881
2.91723
2.85835
2.81135
2.77054
2.73318
2.69773
2.66052
2.61665
2.56053
2.50889
2.48465
2.46741
2.44407
2.41008
2.36915
2.31606
2.24552
2.16534
5.8787
5.52596
5.19088
4.85594
4.52231
4.23031
3.95251
3.67574
3.4093
3.1998
2.99586
2.79288
2.6008
2.46119
2.3182
2.16948
2.05714
1.94951
1.82967
1.84265
2.19388
3.05232
3.79722
3.83091
3.6966
3.55036
3.40574
3.2887
3.19466
3.10519
3.02052
2.93909
2.85844
2.77885
2.69314
2.57977
2.45323
2.36714
2.30634
2.25061
2.19556
2.14896
2.11232
2.07347
2.01709
1.93163
1.87701
1.85561
1.94332
2.3702
3.09723
3.90781
4.35967
4.44948
4.38937
4.22739
4.1463
4.09406
4.06248
4.05452
4.02576
3.97732
3.89799
3.77353
3.65969
3.59725
3.55392
3.51346
3.47598
3.4388
3.38983
3.31495
3.22796
3.16141
3.11736
3.07923
3.03533
2.98155
2.91179
2.83418
2.77444
2.73656
2.70745
2.67898
2.64837
2.61494
2.57539
2.52421
2.46982
2.42601
2.39543
2.37212
2.34411
2.29403
2.22624
2.15834
5.93234
5.60382
5.28438
4.95965
4.64523
4.36173
4.08682
3.80478
3.56348
3.34934
3.14422
2.93064
2.75469
2.60472
2.46089
2.31828
2.17392
2.05149
2.09439
2.55071
3.45785
4.1052
4.13925
4.01026
3.87882
3.76108
3.63112
3.48559
3.34899
3.23972
3.14434
3.05677
2.97863
2.90666
2.83088
2.73605
2.61104
2.48603
2.39719
2.33299
2.2752
2.21981
2.1671
2.11692
2.06913
2.00689
1.91827
1.83095
1.80693
1.80153
1.91618
2.36319
3.09769
3.80041
4.18317
4.1519
4.13773
4.06907
3.99901
3.97826
3.96484
3.9264
3.87631
3.77583
3.63931
3.55897
3.51762
3.48179
3.44682
3.41014
3.3677
3.30814
3.22589
3.14345
3.082
3.04101
3.00931
2.96723
2.90543
2.83271
2.76576
2.70898
2.67215
2.64981
2.63345
2.61587
2.58614
2.53307
2.46236
2.40417
2.36632
2.3302
2.29221
2.25145
2.21834
2.17199
5.99716
5.6805
5.36029
5.0446
4.75778
4.4782
4.1999
3.92869
3.70685
3.48768
3.27782
3.06354
2.90827
2.7438
2.59089
2.43821
2.28974
2.36356
2.98212
4.05366
4.52813
4.48532
4.30496
4.15517
4.06688
3.96723
3.84359
3.69639
3.52158
3.36771
3.26041
3.17202
3.09128
3.01363
2.93316
2.84427
2.73514
2.60342
2.48984
2.41154
2.34907
2.29176
2.23601
2.18017
2.12588
2.06532
1.9938
1.9077
1.82254
1.76447
1.75016
1.75697
1.89292
2.32649
3.04784
3.64945
3.96173
3.98283
3.97438
3.96261
3.91376
3.86248
3.81124
3.73579
3.62744
3.53769
3.48596
3.45061
3.41641
3.37928
3.33729
3.28289
3.20944
3.12774
3.05942
3.00645
2.95462
2.90145
2.85304
2.8093
2.75854
2.70646
2.66655
2.63419
2.60184
2.56626
2.52952
2.49212
2.44648
2.39512
2.34675
2.3033
2.26478
2.22998
2.20994
2.17357
6.04229
5.73609
5.42314
5.12788
4.8522
4.58306
4.30687
4.06607
3.84134
3.62476
3.40123
3.21187
3.04316
2.87408
2.71438
2.55744
2.67673
3.40834
4.65969
5.10713
4.91803
4.65568
4.45403
4.327
4.24385
4.14156
4.01758
3.87869
3.70862
3.51975
3.37794
3.27802
3.1921
3.11138
3.03168
2.94849
2.85466
2.73756
2.60398
2.49402
2.41684
2.35362
2.29508
2.23927
2.18613
2.13123
2.06969
1.99191
1.89758
1.81519
1.75549
1.71567
1.70431
1.71457
1.86493
2.32653
2.99448
3.48265
3.76199
3.82225
3.84774
3.83769
3.7731
3.68954
3.60041
3.52457
3.46191
3.41668
3.38121
3.34216
3.29699
3.24443
3.17934
3.10294
3.02904
2.96607
2.91156
2.86332
2.82121
2.77806
2.7362
2.6988
2.66015
2.61674
2.57167
2.53064
2.49226
2.45268
2.41472
2.37783
2.33375
2.28743
2.25721
2.24053
2.22772
2.18696
6.06286
5.77255
5.4864
5.21532
4.94527
4.67408
4.41791
4.19573
3.96787
3.74446
3.52511
3.3487
3.15426
2.99253
2.84497
3.02858
3.94925
5.01406
5.5843
5.47434
5.19128
4.91362
4.6609
4.50865
4.40443
4.29311
4.16756
4.03383
3.88004
3.69249
3.51013
3.38244
3.28542
3.19964
3.11746
3.03457
2.94757
2.84805
2.72853
2.60534
2.50325
2.4215
2.35005
2.28419
2.22463
2.17149
2.12042
2.06168
1.98412
1.90116
1.82153
1.76176
1.71024
1.67396
1.65761
1.67487
1.82821
2.25989
2.80904
3.32991
3.56412
3.67843
3.69194
3.64833
3.59223
3.52479
3.44007
3.37374
3.33239
3.29209
3.24984
3.2082
3.15986
3.08934
2.99741
2.91401
2.8637
2.82992
2.79551
2.75841
2.72386
2.68806
2.6482
2.60442
2.55264
2.49729
2.44942
2.41337
2.38798
2.36392
2.32982
2.29229
2.26264
2.23396
2.19985
2.13873
6.14737
5.84998
5.5774
5.31385
5.04936
4.77851
4.53988
4.30812
4.0852
3.85032
3.65858
3.44981
3.27738
3.16828
3.49255
4.70503
5.6572
5.86705
5.82692
5.62316
5.42438
5.20837
4.93694
4.6982
4.54907
4.42497
4.29707
4.16282
4.02199
3.85993
3.67203
3.50395
3.38281
3.28377
3.19232
3.10286
3.01242
2.91767
2.81171
2.69581
2.59206
2.5103
2.43881
2.36773
2.2937
2.21718
2.14364
2.07643
2.01646
1.95905
1.8973
1.84352
1.78784
1.73497
1.67484
1.63606
1.59933
1.6146
1.73775
2.12896
2.67972
3.17495
3.46801
3.56212
3.57424
3.52468
3.41904
3.31286
3.24279
3.21408
3.2
3.17623
3.13864
3.07763
2.99306
2.89713
2.82673
2.78668
2.75423
2.72657
2.70279
2.67661
2.64589
2.6
2.53284
2.47053
2.42741
2.39669
2.36752
2.33336
2.30478
2.28986
2.27379
2.24055
2.18969
2.10914
6.21972
5.93069
5.65932
5.39624
5.1263
4.8737
4.64089
4.41201
4.17128
3.96099
3.75181
3.56306
3.52404
4.01297
5.484
6.5683
6.43357
6.18352
5.92601
5.77146
5.63861
5.43964
5.18519
4.90932
4.70911
4.55926
4.41796
4.27623
4.13343
3.98248
3.81457
3.6419
3.49727
3.38145
3.27805
3.17815
3.07806
2.97582
2.86806
2.75346
2.64578
2.56244
2.4972
2.43609
2.37175
2.30026
2.22041
2.13103
2.03775
1.95921
1.91137
1.87745
1.83858
1.7974
1.74785
1.69158
1.62439
1.56606
1.52142
1.53545
1.6878
2.06576
2.60924
3.08118
3.3998
3.42725
3.39741
3.3062
3.212
3.1623
3.13268
3.09369
3.05985
3.03405
2.98703
2.89583
2.8136
2.7658
2.73345
2.70829
2.68337
2.65325
2.60369
2.54087
2.49376
2.45038
2.41503
2.38484
2.35325
2.32308
2.30018
2.27592
2.24121
2.19389
2.14509
2.07667
6.19154
6.00735
5.73219
5.46305
5.20415
4.96559
4.73983
4.50004
4.25634
4.06737
3.85868
3.94679
4.68044
6.08315
7.17783
7.15191
6.74868
6.38002
6.13295
5.98384
5.84136
5.63558
5.3942
5.13203
4.89318
4.7083
4.54679
4.38998
4.23617
4.08321
3.92422
3.75864
3.60482
3.47683
3.36587
3.2608
3.15613
3.04933
2.93868
2.8232
2.70738
2.60534
2.52621
2.46318
2.40535
2.34623
2.28069
2.20417
2.1154
2.01679
1.92902
1.87331
1.83943
1.81151
1.7808
1.74063
1.67994
1.60778
1.53865
1.49606
1.47908
1.50159
1.67513
2.05288
2.61152
2.96515
3.18459
3.21418
3.19551
3.16796
3.11944
3.06936
3.0319
2.9902
2.92112
2.84477
2.78693
2.74873
2.72681
2.70947
2.68846
2.65083
2.5876
2.50456
2.43125
2.40122
2.38277
2.36279
2.34387
2.32724
2.30695
2.27719
2.22486
2.16094
2.10974
2.0485
5.58854
6.05501
5.83991
5.54012
5.29648
5.05935
4.8453
4.57199
4.36871
4.20945
4.47754
5.62094
6.9551
7.60481
7.6416
7.32634
6.98154
6.67413
6.40671
6.19518
5.99927
5.78172
5.5484
5.30691
5.06901
4.86161
4.68188
4.5147
4.35254
4.19101
4.02555
3.85601
3.6944
3.55495
3.43675
3.32939
3.22511
3.11979
3.01067
2.8965
2.77927
2.66726
2.57053
2.49211
2.42568
2.36451
2.3053
2.24364
2.16952
2.07894
1.98902
1.91809
1.86607
1.8248
1.78899
1.75704
1.71601
1.66052
1.59076
1.52386
1.47467
1.46147
1.45216
1.47888
1.63492
1.99856
2.47445
2.78471
2.95565
3.07014
3.07876
3.06229
3.03036
2.97554
2.89534
2.82168
2.77024
2.74026
2.71613
2.68641
2.64275
2.59036
2.5353
2.46959
2.40961
2.37785
2.35587
2.33913
2.32478
2.30727
2.28158
2.23845
2.17735
2.11949
2.08701
2.03753
3.57447
5.67516
5.89916
5.65424
5.37679
5.16805
4.90593
4.67756
4.61668
5.15521
6.65087
8.09625
8.20482
7.97995
7.70287
7.4465
7.23103
6.98692
6.69771
6.40487
6.14765
5.91267
5.68462
5.45672
5.2268
5.00996
4.81768
4.64082
4.4698
4.29922
4.1262
3.95306
3.78782
3.63797
3.50545
3.38707
3.27669
3.16907
3.06071
2.95041
2.83906
2.72951
2.62633
2.53493
2.45721
2.39016
2.32702
2.2622
2.19111
2.11377
2.03612
1.96547
1.90777
1.86183
1.81767
1.76726
1.70688
1.65172
1.60588
1.56209
1.51514
1.47092
1.43864
1.42211
1.39698
1.43139
1.56817
1.92181
2.34553
2.75545
2.85627
2.91906
2.92785
2.89729
2.85953
2.82107
2.77651
2.74107
2.70928
2.66702
2.61205
2.55926
2.49909
2.42376
2.3887
2.37587
2.36214
2.34833
2.33156
2.30759
2.26923
2.21128
2.14987
2.0959
2.04877
2.00809
1.52346
4.13103
5.66847
5.74705
5.50856
5.25284
4.99301
5.16162
6.1794
7.66765
8.85011
9.06851
8.66925
8.16676
7.8315
7.63619
7.45836
7.21487
6.91768
6.59682
6.30693
6.05767
5.82551
5.59873
5.37506
5.15819
4.95229
4.75639
4.56702
4.38279
4.20477
4.03569
3.87622
3.72493
3.58148
3.4487
3.32772
3.21433
3.10227
2.98959
2.87979
2.777
2.6802
2.59002
2.50638
2.42707
2.35088
2.28168
2.21607
2.14365
2.06187
1.99275
1.93632
1.88154
1.82862
1.7794
1.73152
1.68031
1.626
1.58025
1.53727
1.49877
1.46344
1.43054
1.3988
1.35475
1.31143
1.35295
1.52114
1.88768
2.29042
2.65537
2.8244
2.82618
2.79498
2.75526
2.70543
2.66237
2.62663
2.5865
2.55241
2.52073
2.47093
2.40752
2.36512
2.33814
2.31535
2.2978
2.27895
2.25555
2.22119
2.17963
2.13667
2.08866
2.04102
2.00483
1.02605
1.86036
4.47936
5.62972
5.55657
5.38136
5.94493
7.5957
9.10952
9.3831
9.41248
9.25494
8.90295
8.47543
8.1311
7.90389
7.67102
7.39903
7.10115
6.78761
6.48593
6.2147
5.96687
5.73129
5.50318
5.28141
5.06515
4.85347
4.64798
4.45234
4.27106
4.10567
3.95235
3.80481
3.6589
3.51477
3.37711
3.25342
3.14605
3.04669
2.94564
2.84562
2.75186
2.66434
2.57869
2.49279
2.40354
2.31044
2.21819
2.15
2.10874
2.06054
2.00112
1.9343
1.86526
1.7976
1.74106
1.70197
1.66268
1.62369
1.58854
1.55405
1.51537
1.46855
1.41911
1.35669
1.30725
1.2907
1.28126
1.32418
1.51887
1.88399
2.29534
2.53769
2.70287
2.70611
2.69476
2.66303
2.61591
2.56409
2.52485
2.47854
2.4205
2.38848
2.36714
2.33653
2.30405
2.27387
2.24305
2.20878
2.17333
2.13725
2.1
2.07131
2.04251
2.0719
1.00031
1.06243
2.21865
4.69111
5.41494
7.03876
9.1783
10.4066
10.3598
9.99914
9.60506
9.38679
9.13596
8.77335
8.40296
8.12194
7.84244
7.54441
7.24314
6.94005
6.63854
6.35399
6.09282
5.84895
5.6153
5.38686
5.16045
4.93587
4.71834
4.51688
4.33617
4.17269
4.01927
3.86946
3.72046
3.57426
3.4359
3.30832
3.18896
3.07522
2.96739
2.8653
2.76929
2.67919
2.59416
2.5123
2.42748
2.33618
2.24996
2.17716
2.10959
2.04471
1.98602
1.93061
1.87431
1.81495
1.75863
1.70028
1.64338
1.59842
1.56355
1.53568
1.50494
1.46911
1.42599
1.37088
1.3323
1.29747
1.25832
1.23826
1.24394
1.30695
1.5329
1.86132
2.23916
2.4104
2.55996
2.5901
2.57745
2.55505
2.52299
2.47067
2.41594
2.37288
2.3333
2.28939
2.24966
2.21472
2.18612
2.16343
2.14647
2.1315
2.10355
2.10817
2.15471
2.48345
1
1.00106
1.12249
2.41072
6.44625
10.9983
11.4506
11.2303
10.7105
10.1772
9.87811
9.65941
9.42183
9.06636
8.68225
8.38119
8.09065
7.78578
7.47926
7.17468
6.86716
6.57133
6.3007
6.04913
5.80785
5.57193
5.33801
5.10685
4.88484
4.68023
4.49477
4.32362
4.1606
4.00121
3.84434
3.69253
3.54879
3.41274
3.28281
3.16068
3.04765
2.94169
2.84253
2.7501
2.66331
2.57681
2.48975
2.40368
2.31586
2.22406
2.13459
2.05928
1.99785
1.94472
1.89488
1.84064
1.77844
1.71248
1.65208
1.60214
1.56307
1.53851
1.51794
1.49489
1.46145
1.41585
1.3511
1.28903
1.25478
1.23186
1.21733
1.20989
1.2147
1.27974
1.48847
1.83231
2.20112
2.35623
2.40608
2.45222
2.44636
2.42855
2.4099
2.37375
2.32078
2.26112
2.2147
2.18359
2.17151
2.16329
2.15629
2.18603
2.2924
2.52905
2.83916
3.35098
1
1
1.00225
1.40202
8.90939
12.9556
11.8509
11.1247
10.6475
10.281
10.0517
9.85935
9.60646
9.2443
8.85412
8.50637
8.18326
7.86009
7.52951
7.21002
6.89825
6.5919
6.30988
6.04865
5.79764
5.55231
5.31139
5.0768
4.85396
4.64785
4.4583
4.28152
4.11351
3.95159
3.79487
3.64447
3.50203
3.3677
3.24056
3.12009
3.00556
2.8971
2.79626
2.70339
2.61667
2.53379
2.45169
2.3678
2.28229
2.19974
2.12769
2.06518
2.00847
1.95407
1.9005
1.84499
1.78726
1.72606
1.66591
1.61512
1.57642
1.54168
1.50476
1.47011
1.4382
1.40523
1.35838
1.2928
1.26309
1.24724
1.22339
1.19486
1.17464
1.15124
1.16329
1.25587
1.47222
1.7996
2.09783
2.33816
2.36254
2.35345
2.33683
2.30149
2.25175
2.21081
2.19204
2.18117
2.18918
2.24376
2.40746
2.7187
3.1079
3.44174
3.7125
3.83144
1
1
1.00002
2.28068
9.4402
11.7232
11.1177
10.8752
10.6623
10.4731
10.3036
10.1002
9.7252
9.31372
8.96589
8.66048
8.36663
8.05807
7.70974
7.3529
7.02631
6.71748
6.42873
6.15824
5.89936
5.64467
5.39114
5.14385
4.91217
4.70103
4.50831
4.32884
4.15776
3.99161
3.82903
3.67209
3.52532
3.3907
3.26616
3.14771
3.03226
2.92045
2.81441
2.71561
2.62436
2.53911
2.45664
2.37352
2.28933
2.20785
2.13653
2.0801
2.03025
1.97785
1.92134
1.86343
1.80824
1.7555
1.69929
1.64374
1.59008
1.54359
1.50384
1.47026
1.43746
1.40194
1.36125
1.31886
1.27621
1.23455
1.21101
1.18597
1.16378
1.14156
1.12703
1.11334
1.12754
1.22968
1.45865
1.80518
2.05466
2.25145
2.28198
2.26476
2.23579
2.22511
2.24591
2.34125
2.54456
2.89778
3.32211
3.69577
3.9397
4.03771
4.066
4.0161
1
1
1
3.14759
9.75971
11.0362
10.9878
10.9148
10.7854
10.5962
10.3942
10.1079
9.72925
9.36414
9.03884
8.73018
8.41774
8.08567
7.70963
7.33486
7.01283
6.73708
6.45981
6.1903
5.92406
5.656
5.39171
5.14526
4.92394
4.72432
4.53938
4.36244
4.18757
4.01129
3.83705
3.67501
3.53205
3.40521
3.28763
3.17321
3.05662
2.93697
2.82015
2.71532
2.62515
2.54452
2.46757
2.3893
2.30724
2.22159
2.13853
2.06587
2.00441
1.95206
1.904
1.85495
1.80152
1.74027
1.67782
1.62327
1.57928
1.54072
1.50613
1.4727
1.4365
1.39809
1.36036
1.32751
1.28541
1.23801
1.21172
1.19388
1.17342
1.15135
1.12445
1.09766
1.07263
1.0674
1.09858
1.2271
1.48804
1.81603
2.04441
2.16152
2.34384
2.5921
2.84753
3.10372
3.40088
3.71902
3.91683
4.02682
4.14106
4.13434
4.07705
3.97365
1
1
1
3.22113
9.86361
10.8524
10.8492
10.8454
10.7985
10.6762
10.4909
10.2115
9.90116
9.57445
9.2353
8.8881
8.53723
8.16792
7.80249
7.4419
7.11391
6.8222
6.52282
6.23324
5.94638
5.66222
5.39259
5.15041
4.93659
4.74357
4.56239
4.38451
4.20309
4.01686
3.83417
3.66973
3.531
3.4114
3.30037
3.1894
3.07038
2.94204
2.81659
2.7094
2.62167
2.54459
2.4721
2.39946
2.32061
2.23001
2.137
2.05824
1.99649
1.94608
1.90031
1.85391
1.80319
1.74451
1.68
1.6207
1.57614
1.54
1.50678
1.47262
1.43623
1.39985
1.35999
1.31646
1.27965
1.25043
1.21863
1.17697
1.14492
1.12037
1.09839
1.07446
1.05368
1.03789
1.01175
1.0152
1.07141
1.25078
1.64894
2.21919
2.776
3.29503
3.80623
4.21258
4.55959
4.75262
4.69668
4.51722
4.30714
4.13263
4.02119
3.89727
)
;

boundaryField
{
    inlet
    {
        type            fixedValue;
        value           uniform 1;
    }
    outlet
    {
        type            zeroGradient;
    }
    bottom
    {
        type            symmetryPlane;
    }
    top
    {
        type            symmetryPlane;
    }
    obstacle
    {
        type            zeroGradient;
    }
    defaultFaces
    {
        type            empty;
    }
}


// ************************************************************************* //
