/*--------------------------------*- C++ -*----------------------------------*\
  =========                 |
  \\      /  F ield         | OpenFOAM: The Open Source CFD Toolbox
   \\    /   O peration     | Website:  https://openfoam.org
    \\  /    A nd           | Version:  7
     \\/     M anipulation  |
\*---------------------------------------------------------------------------*/
FoamFile
{
    version     2.0;
    format      ascii;
    class       volScalarField;
    location    "1.2";
    object      T;
}
// * * * * * * * * * * * * * * * * * * * * * * * * * * * * * * * * * * * * * //

dimensions      [0 0 0 1 0 0 0];

internalField   nonuniform List<scalar> 
16128
(
1
1
1
1
1
1
1
1
1
1
1
1
1
1
1
1
1
1
1
1
1
1
1
1
1
1
2.08405
2.70923
2.76879
2.78314
2.7921
2.79442
2.79521
2.79542
2.79524
2.7982
2.80823
2.82309
2.83704
2.84593
2.84985
2.85294
2.85963
2.87348
2.89957
2.94093
2.98082
2.99855
1
1
1
1
1
1
1
1
1
1
1
1
1
1
1
1
1
1
1
1
1
1
1
1
1
1
2.07587
2.70745
2.76758
2.78202
2.79116
2.79371
2.7946
2.79481
2.79464
2.7977
2.8079
2.82297
2.83706
2.84598
2.84979
2.85268
2.85902
2.87255
2.89879
2.94016
2.97977
2.99732
1
1
1
1
1
1
1
1
1
1
1
1
1
1
1
1
1
1
1
1
1
1
1
1
1
1
2.0536
2.70455
2.76474
2.77937
2.78928
2.79236
2.79335
2.79353
2.79337
2.79657
2.80701
2.82241
2.83677
2.8459
2.84968
2.85249
2.85849
2.87167
2.89824
2.93958
2.97858
2.99564
1
1
1
1
1
1
1
1
1
1
1
1
1
1
1
1
1
1
1
1
1
1
1
1
1
1
2.01753
2.69901
2.7603
2.77531
2.78619
2.79008
2.79134
2.79146
2.79126
2.79453
2.8052
2.82096
2.83567
2.84504
2.8488
2.85165
2.85745
2.87038
2.89734
2.93872
2.97711
2.9937
1
1
1
1
1
1
1
1
1
1
1
1
1
1
1
1
1
1
1
1
1
1
1
1
1
1
1.96691
2.69041
2.75488
2.77017
2.78193
2.78666
2.78822
2.78816
2.78788
2.79121
2.80217
2.81837
2.83354
2.84317
2.84692
2.84991
2.85571
2.86849
2.89577
2.93731
2.97535
2.99163
1
1
1
1
1
1
1
1
1
1
1
1
1
1
1
1
1
1
1
1
1
1
1
1
1
1
1.89832
2.6776
2.74927
2.76434
2.77649
2.78176
2.78351
2.78315
2.78296
2.78647
2.79812
2.81496
2.83057
2.84027
2.84384
2.84691
2.85279
2.86552
2.89304
2.9349
2.97304
2.9893
1
1
1
1
1
1
1
1
1
1
1
1
1
1
1
1
1
1
1
1
1
1
1
1
1
1
1.81076
2.65859
2.74317
2.75741
2.7695
2.77496
2.77682
2.77643
2.77644
2.78076
2.79361
2.81105
2.82682
2.8363
2.83951
2.84247
2.84834
2.86104
2.88875
2.93115
2.96992
2.9865
1
1
1
1
1
1
1
1
1
1
1
1
1
1
1
1
1
1
1
1
1
1
1
1
1
1
1.70481
2.63025
2.73486
2.74849
2.76088
2.76661
2.76856
2.76851
2.76916
2.77494
2.78941
2.8072
2.82266
2.83154
2.83422
2.83687
2.84249
2.85496
2.8827
2.92565
2.96535
2.98243
1
1
1
1
1
1
1
1
1
1
1
1
1
1
1
1
1
1
1
1
1
1
1
1
1
1
1.56197
2.58075
2.72262
2.73729
2.75102
2.75741
2.76001
2.76071
2.76252
2.77022
2.78642
2.80399
2.8184
2.826
2.82782
2.82992
2.83512
2.84718
2.87475
2.9182
2.95899
2.97676
1
1
1
1
1
1
1
1
1
1
1
1
1
1
1
1
1
1
1
1
1
1
1
1
1
1
1.37745
2.50269
2.71143
2.72407
2.73879
2.74711
2.75098
2.75296
2.75674
2.76648
2.78362
2.80088
2.81381
2.81995
2.8209
2.8224
2.82697
2.83819
2.86507
2.90846
2.94998
2.96824
1
1
1
1
1
1
1
1
1
1
1
1
1
1
1
1
1
1
1
1
1
1
1
1
1
1
1.17332
2.40652
2.70745
2.7156
2.72999
2.73903
2.74423
2.74769
2.75336
2.7647
2.78163
2.79765
2.80821
2.81229
2.8122
2.81305
2.81684
2.82687
2.85276
2.89598
2.93828
2.95728
1
1
1
1
1
1
1
1
1
1
1
1
1
1
1
1
1
1
1
1
1
1
1
1
1
1
1.0092
2.30759
2.7003
2.7093
2.7217
2.72933
2.73496
2.74004
2.74772
2.76068
2.77744
2.79217
2.80052
2.80292
2.80234
2.80268
2.8056
2.81455
2.8391
2.88114
2.92293
2.94123
1
1
1
1
1
1
1
1
1
1
1
1
1
1
1
1
1
1
1
1
1
1
1
1
1
1
1.00005
2.17266
2.69904
2.71187
2.71951
2.72514
2.72949
2.73485
2.74342
2.75686
2.77226
2.78498
2.79087
2.79157
2.79071
2.79049
2.79216
2.79944
2.82108
2.86097
2.90216
2.92144
1
1
1
1
1
1
1
1
1
1
1
1
1
1
1
1
1
1
1
1
1
1
1
1
1
1
1
1.99343
2.67954
2.71162
2.71558
2.71863
2.72204
2.72759
2.73674
2.75015
2.76388
2.7747
2.77874
2.77832
2.77678
2.77567
2.77602
2.78175
2.80073
2.83832
2.8766
2.8897
1
1
1
1
1
1
1
1
1
1
1
1
1
1
1
1
1
1
1
1
1
1
1
1
1
1
1
1.75158
2.61356
2.70069
2.70385
2.70712
2.7111
2.71704
2.72655
2.73963
2.75199
2.76137
2.76416
2.76309
2.76034
2.75781
2.75705
2.7604
2.77342
2.80189
2.83491
2.84703
1
1
1
1
1
1
1
1
1
1
1
1
1
1
1
1
1
1
1
1
1
1
1
1
1
1
1
1.42919
2.4963
2.68442
2.68447
2.689
2.69473
2.70172
2.71135
2.72358
2.73487
2.74355
2.74639
2.74529
2.74191
2.73766
2.7346
2.73406
2.73953
2.76003
2.79417
2.82396
1
1
1
1
1
1
1
1
1
1
1
1
1
1
1
1
1
1
1
1
1
1
1
1
1
1
1
1.0826
2.36289
2.67336
2.67364
2.67688
2.68124
2.68801
2.69624
2.70605
2.71488
2.7225
2.72589
2.72504
2.72146
2.71585
2.70971
2.70453
2.70065
2.69906
2.67259
2.58647
1
1
1
1
1
1
1
1
1
1
1
1
1
1
1
1
1
1
1
1
1
1
1
1
1
1
1
1.00147
2.20661
2.64207
2.65254
2.65952
2.66709
2.67429
2.68098
2.68808
2.69469
2.70054
2.70376
2.70285
2.69905
2.69247
2.68353
2.67216
2.65608
2.62732
2.58059
2.42566
1
1
1
1
1
1
1
1
1
1
1
1
1
1
1
1
1
1
1
1
1
1
1
1
1
1
1
1
1.96975
2.6147
2.64815
2.65804
2.66522
2.66989
2.67327
2.6763
2.67887
2.68103
2.68207
2.68018
2.67541
2.6676
2.65623
2.63959
2.6139
2.5722
2.49757
2.32084
1
1
1
1
1
1
1
1
1
1
1
1
1
1
1
1
1
1
1
1
1
1
1
1
1
1
1
1
1.59639
2.51594
2.63476
2.64857
2.65831
2.66343
2.66591
2.66645
2.66616
2.66521
2.66356
2.65977
2.65335
2.64366
2.62951
2.60895
2.57587
2.53011
2.43335
2.28129
1
1
1
1
1
1
1
1
1
1
1
1
1
1
1
1
1
1
1
1
1
1
1
1
1
1
1
1
1.12347
2.3573
2.63352
2.6335
2.64192
2.6508
2.65582
2.6562
2.65482
2.65147
2.64699
2.64103
2.63267
2.6209
2.604
2.58053
2.54484
2.49389
2.39749
2.27389
1
1
1
1
1
1
1
1
1
1
1
1
1
1
1
1
1
1
1
1
1
1
1
1
1
1
1
1
1.00313
2.17549
2.59406
2.60982
2.62425
2.63348
2.64112
2.64296
2.64163
2.63758
2.63164
2.62422
2.61426
2.60052
2.58128
2.55511
2.51843
2.46548
2.37886
2.27751
1
1
1
1
1
1
1
1
1
1
1
1
1
1
1
1
1
1
1
1
1
1
1
1
1
1
1
1
0.999996
1.82438
2.52909
2.59036
2.60513
2.61726
2.62556
2.62813
2.62672
2.62233
2.61559
2.60742
2.59658
2.58163
2.56084
2.53318
2.49613
2.44395
2.36983
2.28463
1
1
1
1
1
1
1
1
1
1
1
1
1
1
1
1
1
1
1
1
1
1
1
1
1
1
1
1
0.999999
1.30822
2.39697
2.59132
2.58876
2.59589
2.60579
2.61026
2.60934
2.6056
2.59908
2.59069
2.57916
2.56359
2.54213
2.51473
2.47658
2.42763
2.36482
2.29174
1
1
1
1
1
1
1
1
1
1
1
1
1
1
1
1
1
1
1
1
1
1
1
1
1
1
1
1
1
1.02111
2.23025
2.55867
2.56365
2.57462
2.58496
2.59089
2.59049
2.58744
2.58155
2.57328
2.56145
2.54572
2.52475
2.49803
2.46006
2.4154
2.36044
2.29763
1
1
1
1
1
1
1
1
1
1
1
1
1
1
1
1
1
1
1
1
1
1
1
1
1
1
1
1
1
1.00007
1.85043
2.49553
2.54459
2.55954
2.56973
2.57427
2.57336
2.57017
2.56413
2.55548
2.54315
2.52696
2.5068
2.48047
2.4458
2.40534
2.35629
2.30291
1
1
1
1
1
1
1
1
1
1
1
1
1
1
1
1
1
1
1
1
1
1
1
1
1
1
1
1
1
1
1.27287
2.36056
2.54719
2.54475
2.55029
2.55458
2.55404
2.55138
2.54548
2.53662
2.52409
2.5082
2.48865
2.46346
2.43307
2.39625
2.35224
2.30431
1
1
1
1
1
1
1
1
1
1
1
1
1
1
1
1
1
1
1
1
1
1
1
1
1
1
1
1
1
1
1.01573
2.16751
2.5135
2.52329
2.53076
2.53444
2.535
2.53309
2.52738
2.51842
2.50515
2.48961
2.4696
2.44622
2.41955
2.38626
2.34738
2.30368
1
1
1
1
1
1
1
1
1
1
1
1
1
1
1
1
1
1
1
1
1
1
1
1
1
1
1
1
1
1
1.00003
1.70905
2.43263
2.50943
2.51198
2.51501
2.51656
2.51511
2.51002
2.50112
2.4878
2.47256
2.45303
2.43122
2.40648
2.37652
2.3419
2.30152
1
1
1
1
1
1
1
1
1
1
1
1
1
1
1
1
1
1
1
1
1
1
1
1
1
1
1
1
1
1
0.999999
1.12839
2.26093
2.49722
2.48948
2.4931
2.4964
2.49599
2.492
2.48355
2.47114
2.45586
2.43742
2.41703
2.39339
2.36582
2.33447
2.298
1
1
1
1
1
1
1
1
1
1
1
1
1
1
1
1
1
1
1
1
1
1
1
1
1
1
1
1
1
1
1
1.00329
1.93365
2.43305
2.46334
2.47247
2.47845
2.47801
2.47492
2.46765
2.45625
2.44115
2.42342
2.40393
2.3814
2.35579
2.3265
2.29338
1
1
1
1
1
1
1
1
1
1
1
1
1
1
1
1
1
1
1
1
1
1
1
1
1
1
1
1
1
1
1
1
1.28077
2.28427
2.46418
2.45826
2.46069
2.45969
2.45631
2.44989
2.43984
2.42604
2.40925
2.39022
2.36847
2.3444
2.31749
2.28785
1
1
1
1
1
1
1
1
1
1
1
1
1
1
1
1
1
1
1
1
1
1
1
1
1
1
1
1
1
1
1
1
1.01605
2.04983
2.41766
2.4372
2.44142
2.44118
2.43885
2.43295
2.42346
2.4106
2.39475
2.37639
2.35576
2.33325
2.30862
2.28171
1
1
1
1
1
1
1
1
1
1
1
1
1
1
1
1
1
1
1
1
1
1
1
1
1
1
1
1
1
1
1
1
1.00004
1.446
2.29683
2.42928
2.42353
2.42274
2.42053
2.41508
2.40618
2.39417
2.37945
2.3622
2.34281
2.3218
2.29924
2.27498
1
1
1
1
1
1
1
1
1
1
1
1
1
1
1
1
1
1
1
1
1
1
1
1
1
1
1
1
1
1
1
1
1
1.04358
2.08941
2.39976
2.4016
2.40126
2.39975
2.39561
2.38804
2.37721
2.36373
2.34811
2.33047
2.31116
2.29037
2.26826
1
1
1
1
1
1
1
1
1
1
1
1
1
1
1
1
1
1
1
1
1
1
1
1
1
1
1
1
1
1
1
1
1
1.00033
1.50944
2.28013
2.38943
2.38389
2.3813
2.37729
2.37068
2.36125
2.34917
2.33483
2.31857
2.30061
2.28119
2.26061
1
1
1
1
1
1
1
1
1
1
1
1
1
1
1
1
1
1
1
1
1
1
1
1
1
1
1
1
1
1
1
1
1
1
1.05981
2.07118
2.36429
2.36351
2.36131
2.358
2.35252
2.34483
2.3346
2.32184
2.30688
2.28997
2.2717
2.25244
1
1
1
1
1
1
1
1
1
1
1
1
1
1
1
1
1
1
1
1
1
1
1
1
1
1
1
1
1
1
1
1
1
1
1.00066
1.47006
2.23179
2.35072
2.3444
2.34148
2.33661
2.32977
2.32083
2.30956
2.29587
2.27989
2.26232
2.24378
1
1
1
1
1
1
1
1
1
1
1
1
1
1
1
1
1
1
1
1
1
1
1
1
1
1
1
1
1
1
1
1
1
1
1
1.05095
2.00633
2.31918
2.32883
2.32465
2.31987
2.31378
2.30596
2.29587
2.28335
2.26853
2.2519
2.23408
1
1
1
1
1
1
1
1
1
1
1
1
1
1
1
1
1
1
1
1
1
1
1
1
1
1
1
1
1
1
1
1
1
1
1
1.00052
1.40152
2.17154
2.3146
2.30753
2.30475
2.29994
2.2928
2.28292
2.27071
2.25663
2.24113
2.22445
1
1
1
1
1
1
1
1
1
1
1
1
1
1
1
1
1
1
1
1
1
1
1
1
1
1
1
1
1
1
1
1
1
1
1
1
1.03551
1.87632
2.26047
2.29621
2.28906
2.28301
2.27604
2.26708
2.25586
2.2428
2.22851
2.21315
1
1
1
1
1
1
1
1
1
1
1
1
1
1
1
1
1
1
1
1
1
1
1
1
1
1
1
1
1
1
1
1
1
1
1
1
1.00032
1.27788
2.0846
2.28194
2.27091
2.26644
2.25973
2.25179
2.24187
2.23002
2.2168
2.20266
1
1
1
1
1
1
1
1
1
1
1
1
1
1
1
1
1
1
1
1
1
1
1
1
1
1
1
1
1
1
1
1
1
1
1
1
1
1.01561
1.6532
2.17504
2.25457
2.24723
2.24087
2.23404
2.22581
2.21587
2.20435
2.19151
1
1
1
1
1
1
1
1
1
1
1
1
1
1
1
1
1
1
1
1
1
1
1
1
1
1
1
1
1
1
1
1
1
1
1
1
1
1.00011
1.13055
1.95164
2.23716
2.23323
2.22799
2.22126
2.21373
2.20483
2.19449
2.18269
1
1
1
1
1
1
1
1
1
1
1
1
1
1
1
1
1
1
1
1
1
1
1
1
1
1
1
1
1
1
1
1
1
1
1
1
1
1
1.00345
1.41558
2.08806
2.21806
2.20713
2.2032
2.19755
2.19042
2.18156
2.17103
1
1
1
1
1
1
1
1
1
1
1
1
1
1
1
1
1
1
1
1
1
1
1
1
1
1
1
1
1
1
1
1
1
1
1
1
1
1
1.00001
1.04156
1.72978
2.1427
2.19669
2.18848
2.1825
2.17627
2.16834
2.15851
1
1
1
1
1
1
1
1
1
1
1
1
1
1
1
1
1
1
1
1
1
1
1
1
1
1
1
1
1
1
1
1
1
1
1
1
1
1
1
1.00052
1.18575
1.9291
2.17916
2.17612
2.17035
2.16427
2.15694
2.14807
1
1
1
1
1
1
1
1
1
1
1
1
1
1
1
1
1
1
1
1
1
1
1
1
1
1
1
1
1
1
1
1
1
1
1
1
1
1
1
1
1.00713
1.42551
2.03831
2.16153
2.15361
2.14802
2.14217
2.13481
1
1
1
1
1
1
1
1
1
1
1
1
1
1
1
1
1
1
1
1
1
1
1
1
1
1
1
1
1
1
1
1
1
1
1
1
1
1
1
1
1.00004
1.04608
1.67118
2.086
2.14486
2.13307
2.12617
2.12036
1
1
1
1
1
1
1
1
1
1
1
1
1
1
1
1
1
1
1
1
1
1
1
1
1
1
1
1
1
1
1
1
1
1
1
1
1
1
1
1
1
1.00066
1.15625
1.85137
2.10328
2.12607
2.11823
2.11
1
1
1
1
1
1
1
1
1
1
1
1
1
1
1
1
1
1
1
1
1
1
1
1
1
1
1
1
1
1
1
1
1
1
1
1
1
1
1
1
1
1
1.00536
1.33806
1.9381
2.10876
2.10691
2.09951
1
1
1
1
1
1
1
1
1
1
1
1
1
1
1
1
1
1
1
1
1
1
1
1
1
1
1
1
1
1
1
1
1
1
1
1
1
1
1
1
1
1
1.00003
1.02715
1.51755
2.0012
2.09396
2.08681
1
1
1
1
1
1
1
1
1
1
1
1
1
1
1
1
1
1
1
1
1
1
1
1
1
1
1
1
1
1
1
1
1
1
1
1
1
1
1
1
1
1
1
1.00032
1.08282
1.67869
2.02965
2.07979
1
1
1
1
1
1
1
1
1
1
1
1
1
1
1
1
1
1
1
1
1
1
1
1
1
1
1
1
1
1
1
1
1
1
1
1
1
1
1
1
1
1
1
1
1.00183
1.17998
1.79704
2.02906
1
1
1
1
1
1
1
1
1
1
1
1
1
1
1
1
1
1
1
1
1
1
1
1
1
1
1
1
1
1
1
1
1
1
1
1
1
1
1
1
1
1
1
1
1.00001
1.00737
1.30549
1.86289
1
1
1
1
1
1
1
1
1
1
1
1
1
1
1
1
1
1
1
1
1
1
1
1
1
1
1
1
1
1
1
1
1
1
1
1
1
1
1
1
1
1
1
1
1
1.00005
1.02255
1.42831
1
1
1
1
1
1
1
1
1
1
1
1
1
1
1
1
1
1
1
1
1
1
1
1
1
1
1
1
1
1
1
1
1
1
1
1
1
1
1
1
1
1
1
1
1
1
1.00025
1.05282
1
1
1
1
1
1
1
1
1
1
1
1
1
1
1
1
1
1
1
1
1
1
1
1
1
1
1
1
1
1
1
1
1
1
1
1
1
1
1
1
1
1
1
1
1
1
1
1.00093
1
1
1
1
1
1
1
1
1
1
1
1
1
1
1
1
1
1
1
1
1
1
1
1
1
1
1
1
1
1
1
1
1
1
1
1
1
1
1
1
1
1
1
1
1
1
1
1
1
1
1
1
1
1
1
1
1
1
1
1
1
1
1
1
1
1
1
1
1
1
1
1
1
1
1
1
1
1
1
1
1
1
1
1
1
1
1
1
1
1
1
1
1
1
1
1
1
1
1
1
1
1
1
1
1
1
1
1
1
1
1
1
1
1
1
1
1
1
1
1
1
1
1
1
1
1
1
1
1
1
1
1
1
1
1
1
1
1
1
1
1
1
1
1
1
1
1
1
1
1
1
1
1
1
1
1
1
1
1
1
1
1
1
1
1
1
1
1
1
1
1
1
1
1
1
1
1
1
1
1
1
1
1
1
1
1
1
1
1
1
1
1
1
1
1
1
1
1
1
1
1
1
1
1
1
1
1
1
1
1
1
1
1
1
1
1
1
1
1
1
1
1
1
1
1
1
1
1
1
1
1
1
1
1
1
1
1
1
1
1
1
1
1
1
1
1
1
1
1
1
1
1
1
1
1
1
1
1
1
1
1
1
1
1
1
1
1
1
1
1
1
1
1
1
1
1
1
1
1
1
1
1
1
1
1
1
1
1
1
1
1
1
1
1
1
1
1
1
1
1
1
1
1
1
1
1
1
1
1
1
1
1
1
1
1
1
1
1
1
1
1
1
1
1
1
1
1
1
1
1
1
1
1
1
1
1
1
1
1
1
1
1
1
1
1
1
1
1
1
1
1
1
1
1
1
1
1
1
1
1
1
1
1
1
1
1
1
1
1
1
1
1
1
1
1
1
1
1
1
1
1
1
1
1
1
1
1
1
1
1
1
1
1
1
1
1
1
1
1
1
1
1
1
1
1
1
1
1
1
1
1
1
1
1
1
1
1
1
1
1
1
1
1
1
1
1
1
1
1
1
1
1
1
1
1
1
1
1
1
1
1
1
1
1
1
1
1
1
1
1
1
1
1
1
1
1
1
1
1
1
1
1
1
1
1
1
1
1
1
1
1
1
1
1
1
1
1
1
1
1
1
1
1
1
1
1
1
1
1
1
1
1
1
1
1
1
1
1
1
1
1
1
1
1
1
1
1
1
1
1
1
1
1
1
1
1
1
1
1
1
1
1
1
1
1
1
1
1
1
1
1
1
1
1
1
1
1
1
1
1
1
1
1
1
1
1
1
1
1
1
1
1
1
1
1
1
1
1
1
1
1
1
1
1
1
1
1
1
1
1
1
1
1
1
1
1
1
1
1
1
1
1
1
1
1
1
1
1
1
1
1
1
1
1
1
1
1
1
1
1
1
1
1
1
1
1
1
1
1
1
1
1
1
1
1
1
1
1
1
1
1
1
1
1
1
1
1
1
1
1
1
1
1
1
1
1
1
1
1
1
1
1
1
1
1
1
1
1
1
1
1
1
1
1
1
1
1
1
1
1
1
1
1
1
1
1
1
1
1
1
1
1
1
1
1
1
1
1
1
1
1
1
1
1
1
1
1
1
1
1
1
1
1
1
1
1
1
1
1
1
1
1
1
1
1
1
1
1
1
1
1
1
1
1
1
1
1
1
1
1
1
1
1
1
1
1
1
1
1
1
1
1
1
1
1
1
1
1
1
1
1
1
1
1
1
1
1
1
1
1
1
1
1
1
1
1
1
1
1
1
1
1
1
1
1
1
1
1
1
1
1
1
1
1
1
1
1
1
1
1
1
1
1
1
1
1
1
1
1
1
1
1
1
1
1
1
1
1
1
1
1
1
1
1
1
1
1
1
1
1
1
1
1
1
1
1
1
1
1
1
1
1
1
1
1
1
1
1
1
1
1
1
1
1
1
1
1
1
1
1
1
1
1
1
1
1
1
1
1
1
1
1
1
1
1
1
1
1
1
1
1
1
1
1
1
1
1
1
1
1
1
1
1
1
1
1
1
1
1
1
1
1
1
1
1
1
1
1
1
1
1
1
1
1
1
1
1
1
1
1
1
1
1
1
1
1
1
1
1
1
1
1
1
1
1
1
1
1
1
1
1
1
1
1
1
1
1
1
1
1
1
1
1
1
1
1
1
1
1
1
1
1
1
1
1
1
1
1
1
1
1
1
1
1
1
1
1
1
1
1
1
1
1
1
1
1
1
1
1
1
1
1
1
1
1
1
1
1
1
1
1
1
1
1
1
1
1
1
1
1
1
1
1
1
1
1
1
1
1
1
1
1
1
1
1
1
1
1
1
1
1
1
1
1
1
1
1
1
1
1
1
1
1
1
1
1
1
1
1
1
1
1
1
1
1
1
1
1
1
1
1
1
1
1
1
1
1
1
1
1
1
1
1
1
1
1
1.6787
0.970434
0.611552
0.931602
1.11043
1.1472
1.20936
1.33255
1.36631
1.35496
1.36592
1.42194
1.51193
1.58296
1.64192
1.71374
1.72376
1.7152
1.70832
1.70271
1.70533
1.72166
1.75427
1.77955
1.77764
1.75611
1.74781
1.75953
1.78473
1.80466
1.80918
1.80705
1.79542
1.77827
1.77042
1.77095
1.78034
1.79805
1.80714
1.80662
1.80317
1.79795
1.79302
1.78987
1.78896
1.7893
1.78807
1.78671
1.78773
1.78972
1.78956
1.78796
1.78428
1.78064
1.77823
1.77744
1.77954
1.78365
1.78572
1.78729
1.78835
1.79038
1.79329
1.79564
1.79573
1.79568
1.79459
1.79056
1.78431
1.78084
1.78035
1.78035
1.78238
1.78298
1.78052
1.77602
1.76986
1.76487
1.76321
1.76244
1.76233
1.763
1.76552
1.76932
1.77251
1.77394
1.77393
1.77309
1.77291
1.77332
1.77346
1.77267
1.76942
1.76635
1.76471
1.76321
1.76209
1.76044
1.75801
1.75543
1.75267
1.74932
1.74623
1.74505
1.74508
1.74592
1.74785
1.7505
1.75314
1.75448
1.75449
1.75322
1.75029
1.74759
1.74611
1.74604
1.74655
1.74766
1.7489
1.7493
1.74925
1.74903
1.74644
1.74272
1.74034
1.73926
1.73895
1.73886
1.73825
1.73709
1.73544
1.73246
1.72832
1.72475
1.72311
1.72243
1.72401
1.72867
1.73815
1.75317
1.77906
1.82133
1.88744
1.96802
2.05352
2.13357
2.22212
2.29506
2.35903
2.41449
2.46382
2.50825
2.54584
2.57463
2.59498
2.60212
2.60745
2.60438
2.59464
2.5903
2.58454
2.5779
2.57277
2.56575
2.55263
2.53495
2.52353
2.51798
2.51409
2.51185
2.51016
2.50707
2.50419
2.50279
2.50053
2.49633
2.4904
2.48323
2.47737
2.47155
2.46506
2.45797
2.45239
2.4487
2.44434
2.43908
2.43885
2.43996
2.44247
2.44245
2.44006
2.43614
1.92332
1.54744
1.14641
1.17161
1.21181
1.19041
1.14215
1.10307
1.0992
1.10968
1.14173
1.17432
1.2169
1.2863
1.3652
1.41546
1.4574
1.48743
1.50741
1.52388
1.54536
1.58109
1.62353
1.65469
1.67459
1.68252
1.68229
1.69582
1.71484
1.72682
1.73732
1.74008
1.7379
1.73187
1.73005
1.73192
1.74
1.75297
1.76396
1.76586
1.76444
1.76072
1.75687
1.75642
1.75767
1.7596
1.75992
1.76
1.76048
1.7603
1.75896
1.75717
1.75541
1.75459
1.7543
1.75495
1.75875
1.76235
1.76445
1.76624
1.76635
1.76624
1.76769
1.76981
1.77149
1.77354
1.77404
1.7731
1.77181
1.76994
1.76744
1.76574
1.7645
1.7627
1.75965
1.75536
1.7511
1.74761
1.7458
1.74482
1.74472
1.74551
1.74794
1.75148
1.7549
1.75742
1.75856
1.75856
1.75825
1.75844
1.75925
1.75947
1.75843
1.75467
1.75038
1.74761
1.74528
1.74341
1.74256
1.74049
1.73841
1.73698
1.73565
1.734
1.7326
1.73221
1.73259
1.73424
1.73662
1.73862
1.73959
1.73964
1.73885
1.73692
1.73487
1.73382
1.73365
1.73378
1.73422
1.73479
1.73471
1.73392
1.73282
1.72901
1.72635
1.7263
1.72654
1.72718
1.72719
1.72621
1.72382
1.71992
1.71438
1.70904
1.70964
1.71366
1.72397
1.74895
1.79286
1.85684
1.92717
1.98348
2.03364
2.0593
2.07769
2.09618
2.10094
2.10759
2.1262
2.1568
2.18621
2.21364
2.23988
2.26471
2.28799
2.30654
2.32314
2.33814
2.3518
2.3686
2.38675
2.4062
2.42545
2.43775
2.44094
2.44352
2.44461
2.44506
2.44532
2.44588
2.44661
2.44719
2.44833
2.45009
2.45161
2.45216
2.45135
2.44828
2.44414
2.4398
2.43516
2.42955
2.42347
2.41908
2.41504
2.41074
2.4104
2.41174
2.41424
2.41424
2.41305
2.4087
1.99435
1.80124
1.62232
1.44375
1.35838
1.29326
1.22384
1.16419
1.16216
1.16584
1.15161
1.12457
1.12896
1.16021
1.2019
1.21698
1.22143
1.25081
1.29613
1.33704
1.36746
1.39888
1.44336
1.48412
1.5151
1.55575
1.58118
1.60164
1.61525
1.6197
1.62622
1.6338
1.63941
1.64266
1.64421
1.64782
1.65583
1.6642
1.67383
1.68404
1.68823
1.68693
1.68418
1.68092
1.68004
1.68048
1.68321
1.68893
1.69242
1.69287
1.69275
1.69026
1.68721
1.68706
1.68792
1.69137
1.6978
1.70181
1.70485
1.70758
1.70916
1.71049
1.71236
1.7143
1.7153
1.71505
1.71439
1.71458
1.71598
1.71736
1.71802
1.7183
1.71769
1.71442
1.70796
1.70084
1.6969
1.69582
1.69574
1.69586
1.69639
1.69776
1.70003
1.70262
1.70508
1.70738
1.70937
1.71081
1.71171
1.7126
1.71428
1.71671
1.71787
1.71746
1.71548
1.71225
1.70831
1.70429
1.70061
1.69748
1.69532
1.69432
1.69389
1.69388
1.69422
1.69466
1.69501
1.69528
1.69527
1.69538
1.69619
1.69743
1.69777
1.69735
1.69676
1.69691
1.69763
1.69949
1.70113
1.70098
1.70012
1.69882
1.69671
1.69297
1.68884
1.68728
1.68706
1.687
1.6866
1.68501
1.68088
1.67711
1.67714
1.6824
1.70031
1.738
1.79442
1.86405
1.92679
1.98816
2.02311
2.04411
2.0517
2.04688
2.03291
2.01496
1.99478
1.98213
1.96654
1.95108
1.94114
1.93755
1.93992
1.94996
1.96788
1.99251
2.02141
2.05704
2.0928
2.12561
2.15472
2.18096
2.20619
2.22407
2.23676
2.24863
2.25951
2.26972
2.27997
2.29077
2.30309
2.3151
2.3255
2.33536
2.34425
2.3505
2.35272
2.35145
2.3498
2.34737
2.34391
2.33985
2.33477
2.32933
2.32459
2.32072
2.31851
2.31873
2.31949
2.31918
2.31852
2.31505
2.06799
1.90613
1.77187
1.64185
1.52862
1.45046
1.39277
1.32907
1.26686
1.26026
1.25993
1.23487
1.18797
1.16646
1.17077
1.16978
1.1716
1.17437
1.18481
1.20342
1.22923
1.26236
1.30567
1.34469
1.37461
1.4185
1.45699
1.47687
1.49166
1.50712
1.52442
1.54296
1.55738
1.56435
1.56832
1.57287
1.57842
1.58294
1.58829
1.5964
1.60308
1.60363
1.60233
1.59708
1.59333
1.5928
1.59536
1.60254
1.6082
1.61133
1.61245
1.61168
1.60964
1.60901
1.61022
1.61472
1.62024
1.62286
1.62525
1.62725
1.62902
1.63243
1.63725
1.64129
1.6426
1.64243
1.64061
1.63896
1.6391
1.63972
1.64077
1.64122
1.64084
1.6388
1.63396
1.62697
1.62244
1.62169
1.62163
1.62173
1.62235
1.62409
1.62695
1.63024
1.63346
1.63654
1.63928
1.64131
1.64273
1.64429
1.64652
1.64811
1.64812
1.64767
1.64673
1.64524
1.64339
1.64124
1.63868
1.63556
1.63247
1.63036
1.62929
1.62864
1.62862
1.62892
1.62963
1.63038
1.63089
1.63133
1.63166
1.6316
1.63131
1.63068
1.63061
1.63101
1.63243
1.63567
1.63933
1.6399
1.63943
1.63885
1.63717
1.63337
1.6283
1.62473
1.62385
1.62276
1.62413
1.62813
1.63614
1.64978
1.67782
1.72428
1.78057
1.83814
1.88487
1.92324
1.96466
1.97883
1.98178
1.98107
1.97369
1.95758
1.93481
1.91567
1.90144
1.88593
1.86909
1.85466
1.84497
1.83741
1.8312
1.82331
1.81816
1.81533
1.8133
1.81758
1.82885
1.84748
1.8714
1.89991
1.9325
1.96585
1.99593
2.02188
2.04585
2.06829
2.08745
2.10363
2.1183
2.13207
2.14466
2.1576
2.17105
2.1854
2.19606
2.20639
2.21561
2.22033
2.22384
2.22623
2.22734
2.22681
2.22589
2.22544
2.22553
2.22564
2.22612
2.22653
2.22606
2.22206
2.11512
1.98117
1.86984
1.7626
1.6511
1.55739
1.51029
1.48007
1.42374
1.35416
1.3291
1.31033
1.2705
1.23959
1.23655
1.22236
1.20333
1.20503
1.20095
1.19862
1.1947
1.19593
1.20255
1.21819
1.23925
1.27463
1.32792
1.36438
1.39385
1.43007
1.45403
1.47087
1.48558
1.49529
1.50169
1.51103
1.52148
1.52972
1.53381
1.53914
1.54708
1.55076
1.54921
1.5442
1.54062
1.54046
1.54108
1.54267
1.54484
1.54772
1.55063
1.55126
1.55184
1.55248
1.55266
1.55385
1.55592
1.55772
1.55976
1.56231
1.56517
1.56917
1.57343
1.57671
1.5777
1.57765
1.57587
1.573
1.57213
1.57212
1.57238
1.57328
1.57283
1.57161
1.56836
1.5621
1.55613
1.55368
1.55295
1.55286
1.5536
1.55622
1.56041
1.56425
1.56753
1.57024
1.57165
1.57214
1.57283
1.57479
1.57729
1.57772
1.57668
1.57492
1.57408
1.57345
1.57248
1.57109
1.57013
1.56791
1.56522
1.56363
1.56257
1.56127
1.55952
1.55821
1.55795
1.55831
1.55976
1.5618
1.56329
1.56372
1.56337
1.56212
1.56132
1.56141
1.56253
1.56535
1.5685
1.56901
1.56864
1.56787
1.56638
1.56283
1.55727
1.55392
1.55552
1.56332
1.57858
1.60738
1.65407
1.71072
1.76704
1.81651
1.84828
1.86276
1.88304
1.89638
1.89981
1.89932
1.89741
1.89301
1.87952
1.86244
1.84932
1.83836
1.82695
1.81536
1.80466
1.79546
1.78712
1.77939
1.7731
1.76824
1.76468
1.76139
1.75812
1.75433
1.74973
1.7447
1.74067
1.74101
1.74558
1.75587
1.77096
1.7904
1.81348
1.8409
1.87009
1.89872
1.92604
1.95307
1.97679
1.99937
2.02149
2.04296
2.05949
2.07354
2.08463
2.09131
2.09559
2.09986
2.10426
2.10663
2.10834
2.11169
2.11537
2.11932
2.12639
2.13484
2.13866
2.13863
2.15763
2.04096
1.93224
1.84532
1.76518
1.67053
1.58841
1.55296
1.51884
1.47417
1.42117
1.38595
1.34596
1.31341
1.30335
1.2916
1.26796
1.25396
1.24046
1.22269
1.20768
1.1998
1.19828
1.19871
1.20032
1.2061
1.22145
1.24165
1.26454
1.30943
1.35549
1.39294
1.42383
1.44573
1.45874
1.47027
1.48305
1.49276
1.49513
1.49811
1.50389
1.50977
1.51377
1.51727
1.51799
1.51718
1.51453
1.51177
1.51178
1.51256
1.51449
1.5158
1.51622
1.51637
1.51601
1.51607
1.51753
1.52062
1.52469
1.52761
1.52893
1.53002
1.5313
1.53203
1.53208
1.53158
1.5311
1.53064
1.53019
1.53
1.53009
1.52938
1.52757
1.52495
1.52068
1.51499
1.51051
1.50873
1.50836
1.50873
1.51093
1.51395
1.51658
1.51835
1.51899
1.51898
1.51895
1.51928
1.52037
1.52198
1.52278
1.52246
1.5211
1.52047
1.5203
1.51992
1.51908
1.51774
1.51614
1.5135
1.51104
1.5092
1.50757
1.50555
1.50322
1.50226
1.50267
1.50462
1.5074
1.50908
1.50928
1.50827
1.50589
1.5041
1.5038
1.5041
1.50562
1.50827
1.51011
1.51043
1.51026
1.50912
1.50714
1.50438
1.50619
1.51257
1.53097
1.57142
1.62891
1.69842
1.75266
1.79221
1.82798
1.83241
1.83311
1.83989
1.84264
1.839
1.83365
1.83217
1.82978
1.82291
1.81307
1.80428
1.79623
1.788
1.78001
1.77275
1.76515
1.75638
1.74942
1.74443
1.73967
1.73614
1.73371
1.73131
1.72874
1.7261
1.72298
1.71917
1.71491
1.70979
1.70529
1.70284
1.7016
1.69975
1.69919
1.70191
1.70911
1.72195
1.7397
1.76266
1.78983
1.81869
1.84946
1.87782
1.90459
1.92721
1.94628
1.96283
1.97455
1.98561
1.99622
2.00473
2.01158
2.01946
2.02756
2.03422
2.04159
2.05003
2.0532
2.05558
2.18355
2.08775
1.99619
1.90706
1.82921
1.75726
1.69265
1.63112
1.5759
1.53594
1.49575
1.45898
1.4267
1.39248
1.3647
1.34032
1.31445
1.29751
1.28716
1.27589
1.25719
1.24168
1.23496
1.23062
1.22169
1.21178
1.21466
1.21591
1.2166
1.22179
1.23812
1.27037
1.31455
1.36459
1.40961
1.43357
1.4487
1.46275
1.46483
1.46502
1.46791
1.4738
1.48482
1.49663
1.50418
1.50468
1.50437
1.49986
1.4957
1.49496
1.49474
1.4953
1.49574
1.49659
1.49676
1.49739
1.50019
1.50489
1.50763
1.50773
1.50703
1.50552
1.50513
1.50498
1.50491
1.50649
1.50912
1.51041
1.50996
1.50799
1.50427
1.49993
1.49635
1.49334
1.4908
1.48914
1.48845
1.4886
1.48884
1.48879
1.48893
1.48887
1.48847
1.4881
1.48807
1.4883
1.48947
1.4917
1.49315
1.49318
1.49207
1.49014
1.48878
1.48761
1.48639
1.48538
1.48409
1.48232
1.48025
1.47784
1.47575
1.47413
1.47237
1.47039
1.46954
1.47008
1.47167
1.47319
1.47371
1.473
1.47061
1.46769
1.46643
1.46636
1.46694
1.46811
1.46984
1.47116
1.47044
1.47003
1.47022
1.47181
1.47506
1.48603
1.51326
1.56371
1.62542
1.68966
1.74596
1.77812
1.80101
1.81904
1.81611
1.80946
1.80849
1.80806
1.80326
1.79671
1.79389
1.79265
1.78897
1.78267
1.77693
1.7713
1.76494
1.75877
1.75257
1.74576
1.73813
1.73066
1.72528
1.72105
1.71733
1.71558
1.71449
1.71312
1.7115
1.70994
1.70802
1.70499
1.70044
1.69276
1.68359
1.68054
1.67912
1.67661
1.67508
1.67536
1.67661
1.67793
1.67942
1.6819
1.68579
1.69156
1.70002
1.71157
1.72528
1.74245
1.76266
1.78271
1.80303
1.82392
1.84539
1.86626
1.8871
1.90541
1.92455
1.94196
1.95467
1.96885
1.97397
1.98342
2.20949
2.12686
2.04342
1.96835
1.89407
1.81714
1.75837
1.70366
1.65118
1.60617
1.56127
1.51464
1.47909
1.45652
1.43526
1.41065
1.37844
1.34654
1.3249
1.31659
1.30907
1.29572
1.27391
1.26313
1.25799
1.24848
1.23753
1.23249
1.22692
1.22005
1.21986
1.22223
1.23243
1.25503
1.29364
1.33471
1.36607
1.39219
1.41546
1.43466
1.44291
1.44619
1.45692
1.47579
1.49173
1.4955
1.49566
1.4933
1.48601
1.48272
1.48135
1.48143
1.48258
1.48441
1.48628
1.48826
1.49163
1.49607
1.49739
1.49713
1.49582
1.4926
1.49072
1.49059
1.49135
1.4952
1.49933
1.4995
1.49745
1.49382
1.48862
1.4833
1.47988
1.47815
1.47757
1.47863
1.48051
1.48083
1.4803
1.47854
1.47586
1.47357
1.47267
1.47274
1.47374
1.47543
1.47733
1.47848
1.47846
1.47632
1.47289
1.4708
1.4694
1.46778
1.46627
1.46501
1.46364
1.46196
1.4597
1.4573
1.45524
1.45357
1.45198
1.45104
1.45111
1.4517
1.45232
1.45228
1.45107
1.44859
1.44605
1.44527
1.44563
1.44674
1.44774
1.4479
1.4481
1.44819
1.4489
1.45074
1.45829
1.47977
1.52077
1.58345
1.64749
1.70499
1.75419
1.77537
1.78298
1.79665
1.80286
1.80055
1.79217
1.78893
1.78755
1.78413
1.77857
1.77574
1.77441
1.77081
1.76459
1.75938
1.75495
1.74993
1.74448
1.73895
1.73316
1.72644
1.71942
1.71424
1.70971
1.70482
1.70221
1.70217
1.7016
1.70057
1.6992
1.69719
1.69451
1.6903
1.68248
1.67212
1.66399
1.66162
1.66087
1.65873
1.65815
1.65919
1.66085
1.66222
1.66319
1.66404
1.66459
1.66461
1.66399
1.66252
1.66186
1.66245
1.6662
1.67121
1.67605
1.68326
1.69365
1.70597
1.72133
1.74009
1.76183
1.78631
1.80855
1.82674
1.83753
1.85976
2.22732
2.15429
2.08323
2.01412
1.94239
1.87477
1.81964
1.76419
1.70546
1.66423
1.62737
1.58564
1.53595
1.50308
1.48194
1.45731
1.43363
1.41316
1.38443
1.34881
1.34088
1.33766
1.32593
1.30194
1.29423
1.29087
1.28098
1.26921
1.26048
1.25194
1.24411
1.23604
1.23511
1.23671
1.24207
1.24969
1.26127
1.27858
1.30466
1.33616
1.3703
1.4078
1.43061
1.4489
1.46742
1.48226
1.48312
1.48117
1.47552
1.47007
1.46911
1.47016
1.473
1.47604
1.47902
1.4827
1.48707
1.48977
1.49033
1.49022
1.48878
1.48687
1.4867
1.48639
1.48679
1.4897
1.4915
1.49057
1.48785
1.48402
1.47958
1.47592
1.47409
1.47319
1.47412
1.47571
1.47576
1.47535
1.47373
1.47078
1.4675
1.46584
1.46575
1.4668
1.46842
1.46975
1.47023
1.46999
1.46828
1.46407
1.46007
1.45829
1.45698
1.45582
1.45474
1.45376
1.45238
1.45047
1.44804
1.44516
1.44249
1.44066
1.43963
1.43944
1.43954
1.43966
1.43969
1.43912
1.4371
1.43477
1.43431
1.43478
1.43561
1.43594
1.43626
1.43691
1.43768
1.44137
1.45484
1.48852
1.54576
1.61582
1.68533
1.72638
1.76038
1.78994
1.79214
1.78644
1.78567
1.78621
1.78414
1.77961
1.77599
1.77502
1.77341
1.77039
1.76786
1.76379
1.75682
1.75066
1.74574
1.74219
1.73876
1.73455
1.72916
1.72373
1.71856
1.71317
1.70767
1.70218
1.69516
1.69028
1.68988
1.68843
1.68741
1.68675
1.68474
1.68153
1.67714
1.67076
1.66223
1.65312
1.64818
1.6461
1.64539
1.64481
1.64523
1.64725
1.64914
1.64974
1.64938
1.6482
1.64705
1.64618
1.64534
1.64483
1.6439
1.64376
1.64478
1.64712
1.64961
1.65239
1.65433
1.65504
1.65484
1.65537
1.65775
1.66339
1.67032
1.67674
1.68198
1.69374
2.24106
2.17661
2.11489
2.04982
1.98464
1.92628
1.86773
1.815
1.76427
1.71853
1.67754
1.63637
1.59012
1.56175
1.53808
1.50328
1.46638
1.45162
1.43515
1.40913
1.38534
1.37812
1.37071
1.35335
1.32999
1.32371
1.31947
1.30837
1.29221
1.27771
1.26886
1.2642
1.25901
1.25275
1.2488
1.24677
1.24375
1.24098
1.24258
1.24861
1.26414
1.29887
1.34091
1.38015
1.40827
1.43417
1.4488
1.45243
1.45676
1.46153
1.46472
1.46582
1.46764
1.47026
1.47457
1.47915
1.48251
1.48289
1.48204
1.48066
1.48047
1.48086
1.48134
1.48331
1.4862
1.48697
1.48584
1.48292
1.47948
1.47632
1.47366
1.47215
1.47162
1.4722
1.47199
1.47104
1.47022
1.46884
1.46628
1.46379
1.46315
1.4629
1.46314
1.46419
1.46503
1.46508
1.46457
1.463
1.45913
1.45458
1.45229
1.45072
1.4494
1.44866
1.448
1.44632
1.44459
1.44254
1.43983
1.43688
1.43457
1.43309
1.43242
1.43237
1.43247
1.43253
1.43247
1.43161
1.42918
1.42802
1.42808
1.42832
1.42886
1.4297
1.43179
1.43904
1.46087
1.50651
1.57744
1.64622
1.7116
1.7619
1.77427
1.77961
1.79306
1.79496
1.7901
1.78189
1.77726
1.77415
1.7699
1.76726
1.7674
1.76682
1.76432
1.76044
1.75482
1.7471
1.74015
1.73484
1.73144
1.72878
1.72627
1.72215
1.71654
1.71096
1.7056
1.69957
1.69255
1.6858
1.6798
1.67339
1.67145
1.67155
1.67065
1.66845
1.66521
1.66124
1.65701
1.65187
1.64446
1.63878
1.63665
1.63561
1.63414
1.6328
1.63197
1.63119
1.6303
1.62885
1.62717
1.6261
1.62583
1.62548
1.62615
1.62918
1.6302
1.62949
1.62972
1.63105
1.6319
1.63305
1.63478
1.63543
1.63439
1.63182
1.63072
1.63067
1.63123
1.63262
1.63504
1.63709
2.24882
2.19277
2.13735
2.0767
2.01988
1.96668
1.91252
1.86027
1.81236
1.76605
1.72572
1.68763
1.64152
1.60696
1.58021
1.55271
1.52182
1.4915
1.46853
1.45021
1.43113
1.41459
1.40712
1.39843
1.38203
1.35652
1.34359
1.33782
1.32979
1.31948
1.30213
1.29486
1.29218
1.28572
1.27968
1.27246
1.26252
1.25024
1.24106
1.23964
1.23971
1.24322
1.25227
1.27023
1.2973
1.33011
1.36924
1.40278
1.42925
1.45101
1.45702
1.45779
1.45876
1.46357
1.46802
1.47296
1.47564
1.47575
1.47457
1.47214
1.47182
1.47231
1.47454
1.48006
1.48394
1.48386
1.48179
1.47738
1.47313
1.47078
1.46947
1.46946
1.47078
1.47057
1.46857
1.46602
1.46378
1.46109
1.45934
1.45948
1.46013
1.46089
1.4617
1.46226
1.4621
1.46096
1.45849
1.45442
1.4507
1.44873
1.44717
1.44587
1.44555
1.44482
1.44252
1.44049
1.43825
1.43552
1.43299
1.43118
1.42996
1.42905
1.42856
1.42843
1.4285
1.42854
1.42842
1.4269
1.4243
1.42309
1.42355
1.42441
1.42786
1.43964
1.47379
1.53386
1.61034
1.68527
1.72978
1.76409
1.79299
1.79284
1.78656
1.78653
1.7879
1.78636
1.78106
1.77399
1.76944
1.76614
1.76316
1.76043
1.75743
1.75422
1.75068
1.74617
1.74046
1.7327
1.72612
1.72291
1.72008
1.71615
1.71142
1.70552
1.69949
1.6944
1.6892
1.68304
1.67688
1.67144