/*--------------------------------*- C++ -*----------------------------------*\
  =========                 |
  \\      /  F ield         | OpenFOAM: The Open Source CFD Toolbox
   \\    /   O peration     | Website:  https://openfoam.org
    \\  /    A nd           | Version:  7
     \\/     M anipulation  |
\*---------------------------------------------------------------------------*/
FoamFile
{
    version     2.0;
    format      ascii;
    class       volVectorField;
    location    "1.2";
    object      U;
}
// * * * * * * * * * * * * * * * * * * * * * * * * * * * * * * * * * * * * * //

dimensions      [0 1 -1 0 0 0 0];

internalField   nonuniform List<vector> 
16128
(
(3 -6.24995e-17 0)
(3 -1.47576e-16 0)
(3 -1.60938e-16 0)
(3 -1.50063e-16 0)
(3 6.00213e-17 0)
(3 -3.4924e-16 0)
(3 -5.3919e-16 0)
(3 -1.24246e-15 0)
(3 -9.61442e-16 0)
(3 -6.86064e-16 0)
(3 -3.1971e-16 0)
(3 -5.74961e-16 0)
(3 -4.29118e-16 0)
(3 -6.93927e-16 0)
(3 -8.51764e-16 0)
(3 -1.46687e-15 0)
(3 -1.84154e-15 0)
(3 -1.85474e-15 0)
(3 -1.42492e-15 0)
(3 -7.22717e-16 0)
(3 -4.86379e-16 0)
(3 5.92144e-16 0)
(3 1.80706e-15 0)
(3 -2.67192e-16 0)
(3 -5.82933e-16 0)
(3 -2.37646e-15 0)
(1.42076 0.00856784 0)
(0.731147 0.0108591 0)
(0.680983 0.0120262 0)
(0.655418 0.011523 0)
(0.628853 0.0117923 0)
(0.601304 0.0126923 0)
(0.569704 0.0146483 0)
(0.533064 0.0172733 0)
(0.493977 0.0188487 0)
(0.45672 0.0176035 0)
(0.423437 0.0152913 0)
(0.394137 0.0142232 0)
(0.365588 0.0148117 0)
(0.33542 0.0158055 0)
(0.303041 0.0167305 0)
(0.269388 0.0175387 0)
(0.234482 0.0182641 0)
(0.195722 0.0190225 0)
(0.157055 0.0199206 0)
(0.11532 0.0209903 0)
(0.070781 0.0218553 0)
(0.0247934 0.0229328 0)
(3 2.59088e-17 0)
(3 -3.2713e-16 0)
(3 -5.30076e-16 0)
(3 -4.89265e-16 0)
(3 -2.86889e-16 0)
(3 -4.07348e-16 0)
(3 -5.23123e-16 0)
(3 -9.8424e-16 0)
(3 -1.46183e-15 0)
(3 -1.06239e-15 0)
(3 1.75238e-16 0)
(3 2.17527e-16 0)
(3 1.0059e-16 0)
(3 -5.60162e-16 0)
(3 -8.86886e-16 0)
(3 -2.10567e-15 0)
(3 -4.20156e-15 0)
(3 -4.62736e-15 0)
(3 -3.21991e-15 0)
(3 -1.02181e-15 0)
(3 3.91495e-16 0)
(3 2.34127e-15 0)
(3 2.74837e-15 0)
(3 3.45181e-16 0)
(3 -7.13766e-16 0)
(3 -1.75599e-15 0)
(1.43284 0.0383657 0)
(0.727182 0.0412253 0)
(0.674404 0.0375887 0)
(0.648318 0.0345407 0)
(0.621131 0.0348734 0)
(0.592597 0.0374947 0)
(0.559781 0.0431951 0)
(0.522253 0.0504062 0)
(0.483111 0.0540266 0)
(0.4471 0.0501051 0)
(0.415406 0.0439484 0)
(0.386777 0.0413065 0)
(0.358595 0.0433116 0)
(0.328412 0.0463282 0)
(0.295982 0.0490406 0)
(0.262535 0.0516291 0)
(0.22804 0.0542738 0)
(0.190535 0.0571949 0)
(0.152846 0.060226 0)
(0.112347 0.0636954 0)
(0.0690205 0.0666089 0)
(0.0243419 0.0701453 0)
(3 2.23313e-17 0)
(3 -1.54157e-16 0)
(3 -2.66871e-16 0)
(3 -1.04863e-16 0)
(3 -3.36835e-16 0)
(3 -5.10417e-17 0)
(3 -2.1955e-16 0)
(3 -5.34234e-16 0)
(3 -7.33244e-16 0)
(3 -1.03213e-15 0)
(3 -3.39635e-16 0)
(3 -2.76472e-16 0)
(3 -1.85361e-16 0)
(3 -2.26132e-16 0)
(3 -9.60053e-16 0)
(3 -2.54084e-15 0)
(3 -2.54312e-15 0)
(3 -2.59695e-15 0)
(3 -2.35916e-15 0)
(3 -9.09453e-16 0)
(3 1.51259e-15 0)
(3 1.82029e-15 0)
(3 1.50213e-15 0)
(3 3.40313e-16 0)
(3 -2.26446e-16 0)
(3 -1.51586e-15 0)
(1.4764 0.0696595 0)
(0.733604 0.0716818 0)
(0.678697 0.0638459 0)
(0.651318 0.0592476 0)
(0.621886 0.0596808 0)
(0.591214 0.0645425 0)
(0.556397 0.0743734 0)
(0.517226 0.0855283 0)
(0.477137 0.089492 0)
(0.441915 0.0822265 0)
(0.411444 0.0726505 0)
(0.383049 0.0690879 0)
(0.355024 0.0727766 0)
(0.324202 0.0775906 0)
(0.290915 0.0815838 0)
(0.256613 0.0852276 0)
(0.221159 0.0889071 0)
(0.183954 0.0933767 0)
(0.146429 0.0981996 0)
(0.107094 0.104145 0)
(0.0655047 0.109268 0)
(0.0231982 0.115653 0)
(3 -1.69731e-16 0)
(3 2.56089e-16 0)
(3 5.37503e-16 0)
(3 4.21169e-16 0)
(3 -4.90853e-17 0)
(3 -2.82143e-16 0)
(3 -6.06371e-16 0)
(3 -8.42574e-16 0)
(3 -6.44314e-16 0)
(3 -7.8036e-16 0)
(3 -4.60298e-16 0)
(3 -2.09712e-16 0)
(3 3.80293e-16 0)
(3 2.07276e-17 0)
(3 -4.60605e-16 0)
(3 -1.28338e-15 0)
(3 -3.93018e-16 0)
(3 -4.41833e-16 0)
(3 -3.83959e-16 0)
(3 5.68269e-17 0)
(3 7.67152e-16 0)
(3 9.85059e-16 0)
(3 3.29363e-16 0)
(3 -7.8674e-16 0)
(3 -1.41844e-15 0)
(3 -2.37057e-15 0)
(1.54633 0.0989032 0)
(0.742743 0.101244 0)
(0.68494 0.0896056 0)
(0.657759 0.0838081 0)
(0.627267 0.0846664 0)
(0.595345 0.0924525 0)
(0.559309 0.106867 0)
(0.519058 0.121293 0)
(0.478639 0.124203 0)
(0.444624 0.11345 0)
(0.414976 0.10115 0)
(0.386346 0.0973459 0)
(0.35827 0.103172 0)
(0.326636 0.110302 0)
(0.292117 0.115731 0)
(0.256404 0.120192 0)
(0.21913 0.124425 0)
(0.181032 0.129781 0)
(0.142443 0.135693 0)
(0.103149 0.143535 0)
(0.0624202 0.150383 0)
(0.0221316 0.159363 0)
(3 3.59676e-17 0)
(3 5.90324e-17 0)
(3 1.79753e-16 0)
(3 -1.40311e-17 0)
(3 -1.91508e-16 0)
(3 -9.84109e-16 0)
(3 -1.25892e-15 0)
(3 -8.20879e-16 0)
(3 -3.94239e-16 0)
(3 8.73939e-17 0)
(3 5.08803e-17 0)
(3 3.13684e-16 0)
(3 7.84698e-16 0)
(3 6.60186e-16 0)
(3 1.19855e-15 0)
(3 1.48703e-15 0)
(3 1.25769e-15 0)
(3 9.92787e-16 0)
(3 8.22049e-16 0)
(3 8.88672e-16 0)
(3 1.7823e-15 0)
(3 1.41423e-15 0)
(3 4.21601e-16 0)
(3 2.74264e-17 0)
(3 -1.84208e-17 0)
(3 -6.32981e-16 0)
(1.64447 0.127735 0)
(0.753779 0.13063 0)
(0.690129 0.114982 0)
(0.662665 0.10901 0)
(0.630553 0.111067 0)
(0.596763 0.122242 0)
(0.559512 0.140922 0)
(0.519144 0.156822 0)
(0.480565 0.157042 0)
(0.44988 0.143176 0)
(0.422071 0.129173 0)
(0.393777 0.125749 0)
(0.365939 0.134071 0)
(0.33356 0.144015 0)
(0.29771 0.151214 0)
(0.260585 0.156565 0)
(0.221504 0.161174 0)
(0.182167 0.167046 0)
(0.142 0.173567 0)
(0.10184 0.182705 0)
(0.0608764 0.190623 0)
(0.0215502 0.201634 0)
(3 1.18752e-17 0)
(3 -1.33318e-16 0)
(3 -3.74309e-16 0)
(3 -5.25381e-16 0)
(3 -4.65481e-16 0)
(3 -7.81705e-16 0)
(3 -3.27503e-16 0)
(3 -1.69984e-16 0)
(3 2.30479e-16 0)
(3 6.58644e-16 0)
(3 2.89995e-16 0)
(3 -6.48312e-17 0)
(3 -3.25596e-16 0)
(3 1.25465e-16 0)
(3 3.51471e-16 0)
(3 1.63978e-15 0)
(3 1.85905e-15 0)
(3 2.10978e-15 0)
(3 1.86904e-15 0)
(3 1.01664e-15 0)
(3 1.35864e-15 0)
(3 1.63133e-15 0)
(3 1.96275e-15 0)
(3 1.60459e-15 0)
(3 2.017e-15 0)
(3 6.80021e-17 0)
(1.77801 0.154088 0)
(0.769786 0.160215 0)
(0.695053 0.140472 0)
(0.666112 0.135478 0)
(0.6317 0.13978 0)
(0.595835 0.154704 0)
(0.557719 0.176195 0)
(0.518783 0.190348 0)
(0.484872 0.186521 0)
(0.459028 0.170447 0)
(0.432729 0.156362 0)
(0.404309 0.154549 0)
(0.375995 0.166117 0)
(0.342297 0.179584 0)
(0.304788 0.188911 0)
(0.266365 0.195113 0)
(0.226017 0.199876 0)
(0.185744 0.205853 0)
(0.144279 0.212609 0)
(0.102969 0.222524 0)
(0.0610643 0.23089 0)
(0.0215392 0.243242 0)
(3 -1.68704e-16 0)
(3 -5.58196e-16 0)
(3 -5.9358e-16 0)
(3 -5.48991e-16 0)
(3 -4.34089e-16 0)
(3 8.63148e-17 0)
(3 5.2109e-16 0)
(3 8.76481e-16 0)
(3 7.06201e-16 0)
(3 6.96644e-16 0)
(3 6.48778e-16 0)
(3 1.66131e-16 0)
(3 -1.08842e-16 0)
(3 -1.84817e-16 0)
(3 -6.39394e-16 0)
(3 -4.70216e-16 0)
(3 -7.79916e-16 0)
(3 -4.84657e-16 0)
(3 -7.02054e-17 0)
(3 -1.77396e-16 0)
(3 -4.17778e-16 0)
(3 2.11457e-16 0)
(3 1.09992e-15 0)
(3 1.64332e-15 0)
(3 2.14267e-15 0)
(3 1.5519e-15 0)
(1.94601 0.174822 0)
(0.790385 0.191473 0)
(0.697505 0.167648 0)
(0.665924 0.164501 0)
(0.628673 0.171343 0)
(0.591848 0.18944 0)
(0.555869 0.211023 0)
(0.522518 0.219938 0)
(0.496519 0.211375 0)
(0.473499 0.195245 0)
(0.446824 0.183252 0)
(0.41745 0.184423 0)
(0.388015 0.199804 0)
(0.352921 0.217051 0)
(0.313966 0.228522 0)
(0.274551 0.23545 0)
(0.233461 0.24036 0)
(0.192433 0.246365 0)
(0.149789 0.253303 0)
(0.106951 0.263758 0)
(0.0633134 0.272177 0)
(0.0222529 0.2853 0)
(3 1.41702e-16 0)
(3 3.97862e-17 0)
(3 9.14328e-17 0)
(3 4.19025e-16 0)
(3 4.97892e-16 0)
(3 1.15012e-15 0)
(3 1.39292e-15 0)
(3 1.48122e-15 0)
(3 1.01493e-15 0)
(3 3.64095e-16 0)
(3 -1.58052e-16 0)
(3 5.56831e-17 0)
(3 6.82807e-16 0)
(3 1.22214e-15 0)
(3 1.51795e-15 0)
(3 8.55116e-16 0)
(3 -2.81682e-16 0)
(3 -9.69747e-16 0)
(3 -5.86174e-16 0)
(3 -2.46153e-16 0)
(3 -5.04661e-16 0)
(3 -8.63746e-16 0)
(3 -1.1249e-15 0)
(3 -2.44586e-16 0)
(3 2.7373e-16 0)
(3 -1.04249e-16 0)
(2.14567 0.195252 0)
(0.81518 0.228216 0)
(0.701546 0.196965 0)
(0.670873 0.196933 0)
(0.633142 0.206226 0)
(0.598351 0.225621 0)
(0.566373 0.242477 0)
(0.539213 0.242508 0)
(0.516143 0.232255 0)
(0.491928 0.219182 0)
(0.462766 0.211036 0)
(0.431343 0.216057 0)
(0.400058 0.235519 0)
(0.363392 0.25649 0)
(0.323091 0.269983 0)
(0.282742 0.27756 0)
(0.24097 0.282801 0)
(0.199275 0.289142 0)
(0.155598 0.296442 0)
(0.111298 0.307337 0)
(0.0659616 0.315472 0)
(0.023036 0.328794 0)
(3 9.25382e-17 0)
(3 6.1797e-16 0)
(3 4.41243e-16 0)
(3 5.05732e-16 0)
(3 8.1835e-16 0)
(3 7.45799e-16 0)
(3 8.79683e-16 0)
(3 8.05448e-16 0)
(3 5.64444e-16 0)
(3 3.33445e-16 0)
(3 1.12826e-16 0)
(3 5.56063e-16 0)
(3 6.05259e-16 0)
(3 5.61599e-16 0)
(3 4.29416e-16 0)
(3 2.33812e-16 0)
(3 2.62014e-16 0)
(3 -2.56101e-17 0)
(3 -4.04523e-16 0)
(3 -3.62718e-16 0)
(3 -2.70819e-16 0)
(3 -6.41946e-16 0)
(3 -5.00299e-16 0)
(3 -3.57117e-16 0)
(3 3.76139e-16 0)
(3 -2.02713e-16 0)
(2.40078 0.208449 0)
(0.864444 0.265652 0)
(0.720288 0.222357 0)
(0.692361 0.229065 0)
(0.654863 0.240963 0)
(0.621505 0.25869 0)
(0.590887 0.266971 0)
(0.564585 0.263034 0)
(0.538805 0.255193 0)
(0.511183 0.245814 0)
(0.478269 0.241836 0)
(0.44446 0.250161 0)
(0.411594 0.273083 0)
(0.374435 0.297086 0)
(0.33395 0.31221 0)
(0.293527 0.320375 0)
(0.251545 0.326179 0)
(0.209344 0.333489 0)
(0.164405 0.341801 0)
(0.118057 0.3536 0)
(0.0701909 0.36154 0)
(0.024432 0.374789 0)
(3 -1.1815e-16 0)
(3 -7.20624e-17 0)
(3 -4.88062e-16 0)
(3 -6.01887e-16 0)
(3 -2.92819e-17 0)
(3 3.23873e-16 0)
(3 7.01238e-16 0)
(3 9.04525e-16 0)
(3 1.11227e-15 0)
(3 1.37487e-15 0)
(3 1.35815e-15 0)
(3 1.81256e-15 0)
(3 1.81647e-15 0)
(3 1.1256e-15 0)
(3 3.97096e-16 0)
(3 -2.94531e-16 0)
(3 -2.99613e-16 0)
(3 -4.059e-16 0)
(3 -1.38801e-15 0)
(3 -2.10856e-15 0)
(3 -1.1381e-15 0)
(3 2.83805e-16 0)
(3 1.17824e-15 0)
(3 1.70181e-15 0)
(3 1.3733e-15 0)
(3 -3.81658e-16 0)
(2.69546 0.19112 0)
(0.943535 0.291836 0)
(0.749242 0.240535 0)
(0.726195 0.255043 0)
(0.689535 0.269622 0)
(0.654871 0.284872 0)
(0.621834 0.289316 0)
(0.592027 0.285719 0)
(0.562205 0.280499 0)
(0.531503 0.274142 0)
(0.497123 0.273102 0)
(0.462067 0.284 0)
(0.428625 0.309901 0)
(0.390711 0.336987 0)
(0.348834 0.354406 0)
(0.30646 0.364111 0)
(0.262297 0.371221 0)
(0.218719 0.38029 0)
(0.172427 0.390324 0)
(0.124414 0.403572 0)
(0.0743245 0.411654 0)
(0.0257086 0.424748 0)
(3 -2.78749e-16 0)
(3 -7.12401e-16 0)
(3 -5.57492e-16 0)
(3 -4.04335e-16 0)
(3 -1.82654e-16 0)
(3 4.6441e-16 0)
(3 6.16129e-16 0)
(3 7.84216e-16 0)
(3 1.0782e-15 0)
(3 1.52965e-15 0)
(3 1.6805e-15 0)
(3 1.69868e-15 0)
(3 1.72765e-15 0)
(3 1.5492e-15 0)
(3 5.06983e-16 0)
(3 -1.06079e-15 0)
(3 -1.31545e-15 0)
(3 -7.97955e-16 0)
(3 -4.11676e-16 0)
(3 -5.25483e-16 0)
(3 -1.06001e-15 0)
(3 -3.32008e-16 0)
(3 4.47566e-16 0)
(3 9.36062e-16 0)
(3 5.46929e-16 0)
(3 -1.06279e-15 0)
(2.94434 0.0879752 0)
(1.03463 0.309107 0)
(0.767362 0.257879 0)
(0.751063 0.283011 0)
(0.713336 0.304009 0)
(0.675865 0.31794 0)
(0.641424 0.318528 0)
(0.609873 0.314605 0)
(0.577998 0.311392 0)
(0.544456 0.307618 0)
(0.508739 0.308379 0)
(0.471307 0.321099 0)
(0.436491 0.349237 0)
(0.398274 0.378983 0)
(0.356947 0.398383 0)
(0.316185 0.409312 0)
(0.274258 0.417087 0)
(0.233352 0.427374 0)
(0.187824 0.439583 0)
(0.138082 0.45606 0)
(0.0834491 0.466569 0)
(0.0291234 0.480852 0)
(3 -4.41887e-17 0)
(3 -3.814e-16 0)
(3 -4.14935e-16 0)
(3 -1.71613e-16 0)
(3 -3.06264e-16 0)
(3 -5.6236e-16 0)
(3 -4.27025e-16 0)
(3 -5.33584e-16 0)
(3 8.73893e-17 0)
(3 9.74538e-16 0)
(3 1.68903e-15 0)
(3 1.49509e-15 0)
(3 9.63115e-16 0)
(3 5.28409e-16 0)
(3 2.82049e-18 0)
(3 -1.44398e-16 0)
(3 -1.43333e-16 0)
(3 7.66423e-16 0)
(3 7.77327e-16 0)
(3 5.33806e-16 0)
(3 -1.72785e-16 0)
(3 -9.49622e-16 0)
(3 -9.19435e-16 0)
(3 -1.34693e-15 0)
(3 -9.71556e-16 0)
(3 -2.03544e-15 0)
(3.01627 0.00844877 0)
(1.13806 0.312386 0)
(0.767279 0.276987 0)
(0.744544 0.317611 0)
(0.703413 0.342865 0)
(0.666616 0.351254 0)
(0.634639 0.347239 0)
(0.603848 0.343369 0)
(0.572639 0.34259 0)
(0.540076 0.341926 0)
(0.506616 0.344588 0)
(0.471485 0.358851 0)
(0.439975 0.387928 0)
(0.40583 0.419232 0)
(0.369104 0.439672 0)
(0.332726 0.451133 0)
(0.293537 0.46031 0)
(0.253063 0.47444 0)
(0.205152 0.492592 0)
(0.151471 0.515257 0)
(0.0918541 0.530395 0)
(0.0306742 0.545668 0)
(3 2.32915e-16 0)
(3 3.37883e-16 0)
(3 1.91006e-16 0)
(3 1.70965e-16 0)
(3 6.64817e-17 0)
(3 -4.77334e-16 0)
(3 -3.40138e-16 0)
(3 -1.71376e-16 0)
(3 2.66717e-16 0)
(3 9.67431e-16 0)
(3 1.15925e-15 0)
(3 1.22185e-15 0)
(3 1.05445e-15 0)
(3 4.5193e-16 0)
(3 5.38609e-16 0)
(3 1.72642e-15 0)
(3 2.14199e-15 0)
(3 1.38786e-15 0)
(3 9.52706e-16 0)
(3 1.06668e-15 0)
(3 1.11842e-15 0)
(3 -2.92175e-16 0)
(3 -1.57727e-15 0)
(3 -2.50871e-15 0)
(3 -2.22389e-15 0)
(3 -1.45368e-15 0)
(3.00049 3.82194e-05 0)
(1.32368 0.341762 0)
(0.765565 0.304627 0)
(0.718656 0.344735 0)
(0.681703 0.369877 0)
(0.651479 0.374828 0)
(0.625851 0.371021 0)
(0.59947 0.370088 0)
(0.571608 0.372703 0)
(0.541028 0.375459 0)
(0.51011 0.380196 0)
(0.478274 0.396218 0)
(0.450216 0.424984 0)
(0.421815 0.456388 0)
(0.390099 0.477628 0)
(0.35677 0.490702 0)
(0.319679 0.504028 0)
(0.279782 0.524226 0)
(0.23255 0.548747 0)
(0.177997 0.578034 0)
(0.111617 0.601877 0)
(0.0392372 0.621917 0)
(3 1.98311e-17 0)
(3 1.21261e-16 0)
(3 2.88171e-16 0)
(3 2.82427e-16 0)
(3 -5.25312e-16 0)
(3 -2.211e-16 0)
(3 -2.5667e-16 0)
(3 1.3378e-16 0)
(3 3.17141e-16 0)
(3 9.60035e-17 0)
(3 8.02948e-17 0)
(3 -1.70117e-16 0)
(3 -2.41602e-16 0)
(3 -4.9777e-16 0)
(3 4.23071e-16 0)
(3 1.13902e-15 0)
(3 1.31115e-15 0)
(3 4.49608e-16 0)
(3 2.23039e-16 0)
(3 5.08412e-16 0)
(3 1.23498e-15 0)
(3 1.16885e-15 0)
(3 5.26318e-17 0)
(3 -3.20964e-16 0)
(3 -2.25636e-16 0)
(3 -4.33487e-17 0)
(3 -3.794e-08 0)
(1.62016 0.376854 0)
(0.785237 0.355194 0)
(0.706865 0.381705 0)
(0.681254 0.400145 0)
(0.658833 0.400722 0)
(0.636819 0.397329 0)
(0.613311 0.398347 0)
(0.58797 0.403375 0)
(0.558825 0.408903 0)
(0.52931 0.414844 0)
(0.500059 0.431494 0)
(0.473556 0.458955 0)
(0.449414 0.490015 0)
(0.421261 0.513923 0)
(0.38926 0.530671 0)
(0.355048 0.548693 0)
(0.316291 0.574949 0)
(0.267634 0.609657 0)
(0.206407 0.652946 0)
(0.131936 0.694944 0)
(0.0409531 0.720822 0)
(3 1.05694e-16 0)
(3 -5.15523e-16 0)
(3 -2.78847e-16 0)
(3 -7.35336e-16 0)
(3 -6.29117e-16 0)
(3 -2.26437e-16 0)
(3 -1.44333e-16 0)
(3 -1.00644e-16 0)
(3 -5.02159e-16 0)
(3 -9.64922e-16 0)
(3 -7.57087e-16 0)
(3 -1.75986e-15 0)
(3 -1.68672e-15 0)
(3 -1.2268e-15 0)
(3 -5.02568e-16 0)
(3 -1.08962e-16 0)
(3 -6.94863e-17 0)
(3 -3.43786e-16 0)
(3 -1.0677e-16 0)
(3 4.55681e-16 0)
(3 5.65189e-16 0)
(3 5.77753e-16 0)
(3 4.39567e-16 0)
(3 4.58464e-16 0)
(3 9.36394e-17 0)
(3 -1.8564e-16 0)
(3 -2.21049e-09 0)
(2.06818 0.393587 0)
(0.852515 0.423989 0)
(0.737889 0.421281 0)
(0.714793 0.419458 0)
(0.694999 0.420087 0)
(0.673453 0.418994 0)
(0.650072 0.422302 0)
(0.625024 0.430636 0)
(0.595952 0.440004 0)
(0.565964 0.447843 0)
(0.53721 0.464799 0)
(0.511151 0.491333 0)
(0.488484 0.522729 0)
(0.463393 0.549621 0)
(0.433555 0.570028 0)
(0.401269 0.59365 0)
(0.36423 0.629393 0)
(0.320339 0.67866 0)
(0.264791 0.734338 0)
(0.193372 0.793619 0)
(0.0750433 0.844557 0)
(3 -2.49068e-16 0)
(3 -3.65504e-16 0)
(3 -1.36783e-16 0)
(3 1.04662e-16 0)
(3 6.24561e-16 0)
(3 5.76492e-16 0)
(3 3.32454e-16 0)
(3 -3.39289e-16 0)
(3 -6.86968e-16 0)
(3 -1.10388e-15 0)
(3 -1.77097e-15 0)
(3 -1.57604e-15 0)
(3 -1.27354e-15 0)
(3 -5.89177e-16 0)
(3 -3.03353e-16 0)
(3 -1.091e-16 0)
(3 5.48628e-16 0)
(3 9.101e-16 0)
(3 1.31065e-15 0)
(3 1.05528e-15 0)
(3 7.64221e-16 0)
(3 1.37706e-16 0)
(3 5.62622e-18 0)
(3 -5.63185e-16 0)
(3 -9.51314e-16 0)
(3 -7.60454e-16 0)
(3 -1.17991e-10 0)
(2.6594 0.285973 0)
(0.988601 0.472632 0)
(0.815036 0.428645 0)
(0.785459 0.425708 0)
(0.756708 0.430974 0)
(0.72909 0.435019 0)
(0.701598 0.444295 0)
(0.674191 0.457627 0)
(0.644705 0.470385 0)
(0.614622 0.479674 0)
(0.585948 0.495676 0)
(0.560431 0.521166 0)
(0.538231 0.552969 0)
(0.515461 0.58343 0)
(0.488103 0.60945 0)
(0.45793 0.639707 0)
(0.427279 0.68236 0)
(0.392299 0.740156 0)
(0.338582 0.822801 0)
(0.237459 0.944742 0)
(0.125014 1.07956 0)
(3 -2.14401e-17 0)
(3 3.09328e-16 0)
(3 2.66836e-16 0)
(3 6.95887e-16 0)
(3 6.80274e-16 0)
(3 3.09987e-16 0)
(3 -5.12195e-16 0)
(3 -1.04283e-15 0)
(3 -1.14274e-15 0)
(3 -1.57788e-15 0)
(3 -1.71772e-15 0)
(3 -1.5497e-15 0)
(3 -8.56211e-16 0)
(3 3.12665e-17 0)
(3 1.58081e-16 0)
(3 2.08596e-16 0)
(3 9.41415e-16 0)
(3 1.50248e-15 0)
(3 1.23416e-15 0)
(3 1.00557e-15 0)
(3 7.91195e-16 0)
(3 9.1652e-16 0)
(3 6.77265e-16 0)
(3 1.48192e-17 0)
(3 -3.026e-16 0)
(3 -7.61372e-17 0)
(3 -1.42324e-11 0)
(3.03635 0.0499525 0)
(1.17026 0.45354 0)
(0.85402 0.463285 0)
(0.821987 0.462567 0)
(0.79398 0.461998 0)
(0.768796 0.462443 0)
(0.742242 0.471446 0)
(0.714935 0.486709 0)
(0.685299 0.502497 0)
(0.656686 0.514185 0)
(0.63011 0.529566 0)
(0.608088 0.553836 0)
(0.589025 0.584822 0)
(0.570585 0.61703 0)
(0.54819 0.647274 0)
(0.522968 0.682244 0)
(0.497551 0.732377 0)
(0.467606 0.810828 0)
(0.437023 0.942175 0)
(0.423168 1.11269 0)
(0.518703 1.38102 0)
(3 4.0197e-16 0)
(3 4.96202e-16 0)
(3 5.25966e-16 0)
(3 4.8249e-16 0)
(3 7.16515e-16 0)
(3 1.25698e-16 0)
(3 -3.43967e-16 0)
(3 -7.4014e-16 0)
(3 -1.50038e-15 0)
(3 -2.07601e-15 0)
(3 -2.40217e-15 0)
(3 -2.2846e-15 0)
(3 -1.97285e-15 0)
(3 -1.11112e-15 0)
(3 -3.90862e-16 0)
(3 -1.12533e-16 0)
(3 2.28648e-16 0)
(3 1.01299e-15 0)
(3 9.76958e-16 0)
(3 4.86783e-16 0)
(3 6.1932e-17 0)
(3 7.60227e-17 0)
(3 -3.26316e-16 0)
(3 -3.18161e-16 0)
(3 -4.49154e-16 0)
(3 -4.37761e-16 0)
(3 -4.47324e-12 0)
(3.00688 0.00118673 0)
(1.34911 0.44406 0)
(0.834256 0.498357 0)
(0.80749 0.486886 0)
(0.787927 0.485545 0)
(0.767812 0.488784 0)
(0.747619 0.499144 0)
(0.728008 0.515212 0)
(0.707285 0.530418 0)
(0.686513 0.542364 0)
(0.666405 0.556477 0)
(0.650012 0.579748 0)
(0.635701 0.611013 0)
(0.622642 0.646244 0)
(0.606141 0.681932 0)
(0.58798 0.723824 0)
(0.570297 0.783257 0)
(0.561397 0.877598 0)
(0.566907 1.01559 0)
(0.645768 1.17706 0)
(0.9348 1.38286 0)
(3 -7.69899e-17 0)
(3 -1.93343e-16 0)
(3 -2.6847e-16 0)
(3 -2.01712e-16 0)
(3 3.0001e-16 0)
(3 1.69082e-16 0)
(3 1.26673e-16 0)
(3 -1.72204e-16 0)
(3 -1.04757e-15 0)
(3 -1.38266e-15 0)
(3 -1.26311e-15 0)
(3 -1.15494e-15 0)
(3 -1.1133e-15 0)
(3 -8.63616e-16 0)
(3 -2.33204e-16 0)
(3 5.23037e-16 0)
(3 7.14401e-16 0)
(3 8.43804e-16 0)
(3 6.25536e-16 0)
(3 -5.6531e-16 0)
(3 -1.20713e-15 0)
(3 -1.05269e-15 0)
(3 -3.68206e-16 0)
(3 7.67645e-16 0)
(3 1.58755e-16 0)
(3 -3.15182e-17 0)
(3 -5.22875e-13 0)
(3.00003 2.84512e-07 0)
(1.73528 0.478657 0)
(0.848551 0.524271 0)
(0.801002 0.503244 0)
(0.789467 0.507112 0)
(0.774287 0.51099 0)
(0.757701 0.520781 0)
(0.740938 0.536569 0)
(0.722994 0.553104 0)
(0.705658 0.567861 0)
(0.689678 0.58327 0)
(0.677594 0.606731 0)
(0.669089 0.638476 0)
(0.663374 0.675688 0)
(0.655527 0.715077 0)
(0.648496 0.761505 0)
(0.64452 0.825012 0)
(0.657831 0.921014 0)
(0.700628 1.04313 0)
(0.841142 1.18344 0)
(1.16171 1.3228 0)
(3 -1.52406e-16 0)
(3 -1.05034e-17 0)
(3 -1.77371e-16 0)
(3 -3.16927e-16 0)
(3 -6.11824e-16 0)
(3 3.14972e-16 0)
(3 -4.2537e-17 0)
(3 -7.65278e-16 0)
(3 -8.60902e-16 0)
(3 -5.61455e-16 0)
(3 -4.99372e-16 0)
(3 2.89044e-16 0)
(3 9.59018e-16 0)
(3 8.79231e-16 0)
(3 7.52656e-16 0)
(3 3.61505e-16 0)
(3 3.76653e-16 0)
(3 8.44244e-16 0)
(3 9.80738e-16 0)
(3 5.92677e-16 0)
(3 -7.0368e-17 0)
(3 3.66002e-17 0)
(3 6.36991e-16 0)
(3 7.40996e-16 0)
(3 2.77315e-16 0)
(3 7.78686e-16 0)
(3 -4.04477e-15 0)
(3 -2.51863e-07 0)
(2.3998 0.429955 0)
(0.954806 0.577047 0)
(0.840066 0.52086 0)
(0.820775 0.522062 0)
(0.799732 0.52866 0)
(0.780818 0.538356 0)
(0.764103 0.554626 0)
(0.746955 0.572672 0)
(0.730167 0.588971 0)
(0.715242 0.604674 0)
(0.704538 0.627582 0)
(0.699216 0.659532 0)
(0.699093 0.698721 0)
(0.700215 0.74189 0)
(0.70407 0.791419 0)
(0.71709 0.85501 0)
(0.746055 0.944771 0)
(0.822524 1.05249 0)
(0.986737 1.16501 0)
(1.26687 1.25156 0)
(3 6.53835e-17 0)
(3 1.87591e-16 0)
(3 -5.89483e-18 0)
(3 -2.90991e-16 0)
(3 -7.95935e-16 0)
(3 -6.01115e-16 0)
(3 -3.41437e-16 0)
(3 -7.61511e-16 0)
(3 -8.87393e-16 0)
(3 -5.63436e-16 0)
(3 5.48646e-18 0)
(3 2.664e-16 0)
(3 2.30031e-16 0)
(3 5.24582e-16 0)
(3 -2.01654e-16 0)
(3 -4.69455e-16 0)
(3 3.91145e-16 0)
(3 1.45816e-15 0)
(3 1.66892e-15 0)
(3 1.03647e-15 0)
(3 7.63365e-16 0)
(3 5.7106e-17 0)
(3 -1.45019e-16 0)
(3 -2.85028e-16 0)
(3 2.04482e-16 0)
(3 6.22667e-16 0)
(3 1.98757e-15 0)
(3 -7.424e-08 0)
(3.05116 0.100131 0)
(1.20252 0.5661 0)
(0.902939 0.551735 0)
(0.871259 0.55447 0)
(0.839579 0.553029 0)
(0.813474 0.558562 0)
(0.794103 0.575264 0)
(0.774677 0.595969 0)
(0.755976 0.614318 0)
(0.740826 0.629638 0)
(0.731455 0.650232 0)
(0.729413 0.679515 0)
(0.733852 0.717701 0)
(0.74312 0.762202 0)
(0.756151 0.81204 0)
(0.782281 0.871764 0)
(0.824419 0.94992 0)
(0.918293 1.04214 0)
(1.08313 1.12699 0)
(1.31323 1.18134 0)
(3 -5.52747e-17 0)
(3 -2.56166e-16 0)
(3 -1.55769e-16 0)
(3 -1.14422e-16 0)
(3 4.33066e-17 0)
(3 -2.50297e-16 0)
(3 2.85428e-16 0)
(3 7.70309e-16 0)
(3 3.67002e-16 0)
(3 -1.09306e-16 0)
(3 3.06293e-16 0)
(3 -3.06665e-16 0)
(3 -6.10536e-16 0)
(3 -1.95426e-16 0)
(3 2.78018e-16 0)
(3 5.09081e-16 0)
(3 6.97195e-16 0)
(3 5.3367e-16 0)
(3 -2.13971e-16 0)
(3 -1.65476e-16 0)
(3 9.88033e-17 0)
(3 -1.28444e-16 0)
(3 2.39936e-16 0)
(3 5.59496e-16 0)
(3 1.2386e-15 0)
(3 1.96656e-15 0)
(3 2.02274e-15 0)
(3 -4.87383e-09 0)
(3.01711 0.00204908 0)
(1.42744 0.550859 0)
(0.888915 0.606183 0)
(0.867708 0.591806 0)
(0.848481 0.588914 0)
(0.829617 0.58925 0)
(0.814436 0.604352 0)
(0.799276 0.624618 0)
(0.784171 0.640682 0)
(0.771863 0.652119 0)
(0.764168 0.669225 0)
(0.764154 0.69609 0)
(0.771096 0.733271 0)
(0.785817 0.778339 0)
(0.806215 0.827653 0)
(0.8402 0.882224 0)
(0.893915 0.948179 0)
(0.995132 1.02458 0)
(1.14539 1.08614 0)
(1.3397 1.12407 0)
(3 6.05074e-17 0)
(3 1.09744e-16 0)
(3 4.63995e-16 0)
(3 4.55031e-16 0)
(3 2.2262e-16 0)
(3 -2.75175e-16 0)
(3 -3.25639e-16 0)
(3 3.55586e-16 0)
(3 8.36993e-16 0)
(3 6.87737e-16 0)
(3 3.55543e-16 0)
(3 -5.42837e-16 0)
(3 -3.61033e-16 0)
(3 -5.48098e-16 0)
(3 6.6465e-16 0)
(3 1.51746e-15 0)
(3 4.04221e-16 0)
(3 -2.47667e-16 0)
(3 -7.19099e-16 0)
(3 -8.45542e-16 0)
(3 -8.88119e-16 0)
(3 -7.156e-16 0)
(3 1.20229e-16 0)
(3 7.28172e-16 0)
(3 1.58814e-15 0)
(3 1.70349e-15 0)
(3 1.47471e-15 0)
(3 -5.95695e-11 0)
(3.00014 -2.03858e-06 0)
(2.01404 0.558562 0)
(0.940466 0.63597 0)
(0.88526 0.595979 0)
(0.877809 0.602442 0)
(0.859295 0.611948 0)
(0.843602 0.628945 0)
(0.830364 0.649459 0)
(0.817964 0.664811 0)
(0.807989 0.675277 0)
(0.801873 0.689938 0)
(0.80357 0.713463 0)
(0.811984 0.746942 0)
(0.829717 0.78941 0)
(0.854322 0.836545 0)
(0.892682 0.884943 0)
(0.952511 0.938281 0)
(1.04982 0.997322 0)
(1.18325 1.04231 0)
(1.34585 1.06737 0)
(3 2.43585e-17 0)
(3 3.7495e-16 0)
(3 4.95942e-16 0)
(3 9.1246e-16 0)
(3 3.13377e-16 0)
(3 -4.14514e-17 0)
(3 -1.29695e-16 0)
(3 1.36842e-16 0)
(3 9.57436e-16 0)
(3 9.42293e-16 0)
(3 8.13024e-16 0)
(3 3.77534e-16 0)
(3 -7.07234e-17 0)
(3 -2.146e-16 0)
(3 3.66023e-16 0)
(3 5.53835e-16 0)
(3 -4.01608e-16 0)
(3 -2.42898e-16 0)
(3 -1.81424e-17 0)
(3 -2.10363e-16 0)
(3 -4.57722e-16 0)
(3 -7.13796e-16 0)
(3 2.02309e-17 0)
(3 1.07698e-15 0)
(3 1.22762e-15 0)
(3 1.23676e-15 0)
(3 1.00165e-15 0)
(3 -4.8878e-14 0)
(3.00001 -2.51314e-06 0)
(2.87623 0.256725 0)
(1.14681 0.637854 0)
(0.939115 0.607702 0)
(0.923957 0.625021 0)
(0.902517 0.638245 0)
(0.881464 0.652784 0)
(0.867374 0.670814 0)
(0.85671 0.684476 0)
(0.849267 0.69415 0)
(0.84471 0.706991 0)
(0.846865 0.729255 0)
(0.855387 0.761075 0)
(0.874484 0.801127 0)
(0.901214 0.845411 0)
(0.944425 0.888835 0)
(1.00668 0.929828 0)
(1.09764 0.974743 0)
(1.21479 1.00814 0)
(1.35261 1.02546 0)
(3 -1.59365e-16 0)
(3 -7.18918e-17 0)
(3 -4.0122e-16 0)
(3 -2.27975e-16 0)
(3 4.25878e-16 0)
(3 5.6136e-16 0)
(3 6.90643e-16 0)
(3 7.85058e-16 0)
(3 9.39024e-16 0)
(3 1.09081e-15 0)
(3 1.00525e-15 0)
(3 1.28868e-15 0)
(3 1.59464e-15 0)
(3 1.66746e-15 0)
(3 1.44427e-15 0)
(3 1.4001e-15 0)
(3 3.06102e-16 0)
(3 2.52649e-17 0)
(3 3.39994e-16 0)
(3 9.95372e-16 0)
(3 8.21505e-16 0)
(3 4.50286e-16 0)
(3 2.37596e-16 0)
(3 8.77719e-16 0)
(3 1.23754e-15 0)
(3 1.11559e-15 0)
(3 1.08651e-15 0)
(3 8.9972e-16 0)
(3 -4.48281e-07 0)
(3.0537 0.0147468 0)
(1.3858 0.610502 0)
(0.954059 0.665578 0)
(0.924504 0.661071 0)
(0.910687 0.672375 0)
(0.901109 0.680761 0)
(0.896084 0.692987 0)
(0.89172 0.703402 0)
(0.888622 0.712671 0)
(0.886685 0.72522 0)
(0.889638 0.745668 0)
(0.899308 0.77364 0)
(0.918804 0.808937 0)
(0.947652 0.848551 0)
(0.994092 0.886473 0)
(1.05485 0.918773 0)
(1.1374 0.951027 0)
(1.23768 0.974039 0)
(1.35731 0.983959 0)
(3 -1.21295e-17 0)
(3 -4.87595e-17 0)
(3 -4.78572e-16 0)
(3 -1.07835e-15 0)
(3 -6.18029e-16 0)
(3 2.70548e-16 0)
(3 7.75209e-16 0)
(3 1.11653e-15 0)
(3 1.0837e-15 0)
(3 1.05659e-15 0)
(3 1.27313e-15 0)
(3 1.45182e-15 0)
(3 2.79038e-15 0)
(3 3.23587e-15 0)
(3 2.03457e-15 0)
(3 4.09611e-16 0)
(3 2.88687e-16 0)
(3 1.29152e-16 0)
(3 4.24886e-16 0)
(3 4.98417e-16 0)
(3 1.05015e-15 0)
(3 9.78453e-16 0)
(3 8.01176e-16 0)
(3 5.94769e-16 0)
(3 1.22152e-15 0)
(3 1.57511e-15 0)
(3 1.6782e-15 0)
(3 1.49432e-15 0)
(3 -2.85765e-08 0)
(3.00138 4.29639e-05 0)
(1.97673 0.606938 0)
(1.0008 0.714418 0)
(0.946835 0.677793 0)
(0.938428 0.682911 0)
(0.930466 0.691292 0)
(0.927407 0.703156 0)
(0.925988 0.716116 0)
(0.924984 0.729294 0)
(0.925644 0.743331 0)
(0.93022 0.76157 0)
(0.942311 0.786025 0)
(0.962413 0.81684 0)
(0.9943 0.851756 0)
(1.04179 0.885479 0)
(1.10053 0.913095 0)
(1.17614 0.937336 0)
(1.26424 0.953161 0)
(1.37012 0.960084 0)
(3 7.6855e-17 0)
(3 -8.60901e-17 0)
(3 -2.20456e-16 0)
(3 -3.42743e-16 0)
(3 -6.73335e-16 0)
(3 -5.81827e-16 0)
(3 4.38257e-17 0)
(3 2.24013e-16 0)
(3 1.6938e-16 0)
(3 1.45371e-16 0)
(3 8.44381e-16 0)
(3 1.52842e-15 0)
(3 1.61086e-15 0)
(3 1.30166e-15 0)
(3 8.9691e-17 0)
(3 -1.09531e-15 0)
(3 -1.1798e-15 0)
(3 -9.41517e-16 0)
(3 -9.71479e-16 0)
(3 -7.43506e-16 0)
(3 6.44313e-16 0)
(3 1.43133e-15 0)
(3 1.0651e-15 0)
(3 4.81624e-16 0)
(3 5.33208e-16 0)
(3 1.04717e-15 0)
(3 1.42178e-15 0)
(3 1.30912e-15 0)
(3 -2.61169e-10 0)
(3 -4.38271e-08 0)
(2.91845 0.241086 0)
(1.21827 0.696587 0)
(1.00431 0.689856 0)
(0.989817 0.69737 0)
(0.974461 0.70564 0)
(0.965428 0.716274 0)
(0.961447 0.730982 0)
(0.959856 0.746055 0)
(0.961928 0.761115 0)
(0.968455 0.775943 0)
(0.982586 0.796605 0)
(1.00448 0.822724 0)
(1.03895 0.852335 0)
(1.08556 0.881609 0)
(1.14187 0.905829 0)
(1.20984 0.923771 0)
(1.28956 0.933678 0)
(1.38181 0.936846 0)
(3 5.68732e-17 0)
(3 -9.13748e-17 0)
(3 9.3414e-17 0)
(3 2.36901e-16 0)
(3 -4.21472e-16 0)
(3 -1.23704e-15 0)
(3 -1.42209e-15 0)
(3 -9.34637e-16 0)
(3 -8.88881e-16 0)
(3 -5.76405e-16 0)
(3 1.52211e-17 0)
(3 3.48456e-16 0)
(3 9.08227e-17 0)
(3 -8.35351e-16 0)
(3 -1.84401e-15 0)
(3 -1.70048e-15 0)
(3 -1.917e-15 0)
(3 -1.59311e-15 0)
(3 -1.20326e-15 0)
(3 -1.1119e-15 0)
(3 -6.20239e-16 0)
(3 7.50095e-16 0)
(3 6.12534e-16 0)
(3 2.12951e-16 0)
(3 -1.61826e-16 0)
(3 -5.72934e-16 0)
(3 -5.13862e-16 0)
(3 -3.05687e-16 0)
(3 -2.47249e-13 0)
(3 -2.08423e-07 0)
(3.04519 0.0099201 0)
(1.48911 0.665432 0)
(1.01176 0.737805 0)
(0.996343 0.731599 0)
(0.991903 0.736573 0)
(0.991497 0.74304 0)
(0.991365 0.755325 0)
(0.992147 0.76858 0)
(0.995536 0.781722 0)
(1.00473 0.79155 0)
(1.02033 0.807043 0)
(1.04437 0.827383 0)
(1.07961 0.851477 0)
(1.12443 0.876169 0)
(1.17838 0.898397 0)
(1.24071 0.915274 0)
(1.31428 0.924553 0)
(1.39474 0.926746 0)
(3 -7.69838e-18 0)
(3 5.87625e-17 0)
(3 3.24555e-16 0)
(3 3.61601e-16 0)
(3 3.37727e-17 0)
(3 -3.1828e-16 0)
(3 -7.27573e-16 0)
(3 -5.19795e-16 0)
(3 -2.35236e-16 0)
(3 -2.58188e-17 0)
(3 -1.79851e-16 0)
(3 -6.70494e-16 0)
(3 -1.1182e-15 0)
(3 -1.10149e-15 0)
(3 -1.45068e-15 0)
(3 -1.47317e-15 0)
(3 -1.19358e-15 0)
(3 -1.77481e-15 0)
(3 -1.35756e-15 0)
(3 -9.83978e-16 0)
(3 -1.34713e-15 0)
(3 -9.93025e-16 0)
(3 4.44697e-16 0)
(3 4.71438e-16 0)
(3 2.43009e-16 0)
(3 -5.6062e-16 0)
(3 -2.04505e-15 0)
(3 -1.73249e-15 0)
(3 -1.50406e-15 0)
(3 -6.97317e-08 0)
(3.00082 4.19692e-05 0)
(2.23264 0.578971 0)
(1.08562 0.768428 0)
(1.02133 0.740713 0)
(1.02083 0.742034 0)
(1.02364 0.750898 0)
(1.02714 0.764804 0)
(1.03003 0.779966 0)
(1.03301 0.794485 0)
(1.04184 0.803477 0)
(1.05611 0.815602 0)
(1.08007 0.832724 0)
(1.11502 0.852831 0)
(1.15815 0.872796 0)
(1.20911 0.890918 0)
(1.26811 0.904585 0)
(1.33543 0.912148 0)
(1.40746 0.912494 0)
(3 -2.95978e-17 0)
(3 -6.55674e-17 0)
(3 -2.93148e-16 0)
(3 -1.37e-16 0)
(3 5.07115e-16 0)
(3 3.68266e-16 0)
(3 1.4924e-16 0)
(3 -2.52554e-16 0)
(3 -2.99147e-16 0)
(3 -4.81697e-16 0)
(3 -5.07162e-16 0)
(3 -7.61643e-16 0)
(3 -1.00077e-15 0)
(3 -1.38329e-15 0)
(3 -1.17512e-15 0)
(3 -7.45383e-16 0)
(3 -2.46084e-16 0)
(3 -4.98251e-16 0)
(3 -7.83806e-16 0)
(3 -1.87004e-16 0)
(3 -9.71775e-17 0)
(3 -5.67141e-16 0)
(3 -7.16073e-16 0)
(3 -4.23926e-16 0)
(3 -5.01226e-16 0)
(3 -9.3963e-16 0)
(3 -1.21912e-15 0)
(3 -1.23246e-15 0)
(3 -1.07901e-15 0)
(3 -4.89883e-09 0)
(3 -6.68621e-07 0)
(3.05655 0.119505 0)
(1.37954 0.745643 0)
(1.07987 0.759429 0)
(1.07127 0.75779 0)
(1.0616 0.764927 0)
(1.06031 0.777759 0)
(1.0622 0.79523 0)
(1.06642 0.809642 0)
(1.07581 0.818225 0)
(1.08966 0.825872 0)
(1.11165 0.836782 0)
(1.14475 0.851153 0)
(1.18623 0.867234 0)
(1.23479 0.882789 0)
(1.29132 0.895697 0)
(1.35338 0.904095 0)
(1.42041 0.904807 0)
(3 2.84765e-17 0)
(3 -1.05877e-17 0)
(3 -5.86194e-17 0)
(3 1.87555e-16 0)
(3 3.13139e-16 0)
(3 5.98354e-17 0)
(3 -1.42343e-16 0)
(3 -9.3005e-17 0)
(3 -5.81998e-16 0)
(3 -6.68355e-16 0)
(3 -1.05342e-15 0)
(3 -1.24117e-15 0)
(3 -1.57879e-15 0)
(3 -1.87575e-15 0)
(3 -1.62432e-15 0)
(3 -1.21523e-15 0)
(3 -7.14416e-16 0)
(3 -4.79793e-16 0)
(3 -7.01021e-16 0)
(3 -8.93116e-16 0)
(3 -1.02293e-15 0)
(3 -1.17221e-15 0)
(3 -2.396e-15 0)
(3 -2.66159e-15 0)
(3 -2.24321e-15 0)
(3 -1.16733e-15 0)
(3 -7.78312e-16 0)
(3 -6.90929e-16 0)
(3 -1.28222e-15 0)
(3 -2.81247e-11 0)
(3 -7.39331e-07 0)
(3.01632 0.00173927 0)
(1.8577 0.710248 0)
(1.10623 0.812893 0)
(1.08584 0.789408 0)
(1.08407 0.788979 0)
(1.08366 0.79843 0)
(1.08818 0.809176 0)