/*--------------------------------*- C++ -*----------------------------------*\
  =========                 |
  \\      /  F ield         | OpenFOAM: The Open Source CFD Toolbox
   \\    /   O peration     | Website:  https://openfoam.org
    \\  /    A nd           | Version:  7
     \\/     M anipulation  |
\*---------------------------------------------------------------------------*/
FoamFile
{
    version     2.0;
    format      ascii;
    class       volScalarField;
    location    "0.4";
    object      p;
}
// * * * * * * * * * * * * * * * * * * * * * * * * * * * * * * * * * * * * * //

dimensions      [1 -1 -2 0 0 0 0];

internalField   nonuniform List<scalar> 
258048
(
1
1
1
1
1
1
1
1
1
1
1
1
1
1
1
1
1
1
1
1
1
1
1
1
1
1
1
1
1
1
1
1
1
1
1
1
1
1
1
1
1
1
1
1
1
1
1
1
1
1
1
1
1
1
1
1
1
1
1
1
1
1
1
1
1
1
1
1
1
1
1
1
1
1
1
1
1
1
1
1
1
1
1
1
1
1
1
1
1
1
1
1
1
1
1
1
1
1
1
1
1
1
1
1
1
1
1
1
1
1
1
1
1
1
1
1
1
1
1
1
1
1
1
1
1
1
1
6.22027
11.5029
11.6156
11.6626
11.7011
11.716
11.7283
11.709
11.6491
11.5712
11.5295
11.5474
11.633
11.7378
11.8464
11.9415
12.024
12.0784
12.1045
12.1131
12.1053
12.0709
12.0063
11.9321
11.8926
11.9166
11.9995
12.1044
12.2125
12.3038
12.3688
12.3951
12.4
12.3779
12.3143
12.2172
12.1354
12.1172
12.1767
12.2734
12.4026
12.5178
12.5782
12.5801
12.5381
12.4635
12.3755
12.2975
12.2952
12.3474
12.411
12.4549
12.4997
12.534
12.6123
12.6497
12.5971
12.4822
12.3699
12.3455
12.3357
12.394
12.456
12.5999
12.7168
1
1
1
1
1
1
1
1
1
1
1
1
1
1
1
1
1
1
1
1
1
1
1
1
1
1
1
1
1
1
1
1
1
1
1
1
1
1
1
1
1
1
1
1
1
1
1
1
1
1
1
1
1
1
1
1
1
1
1
1
1
1
1
1
1
1
1
1
1
1
1
1
1
1
1
1
1
1
1
1
1
1
1
1
1
1
1
1
1
1
1
1
1
1
1
1
1
1
1
1
1
1
1
1
1
1
1
1
1
1
1
1
1
1
1
1
1
1
1
1
1
1
1
1
1
1
1
6.1944
11.4835
11.6241
11.6634
11.7017
11.7153
11.7256
11.7045
11.6438
11.5673
11.5281
11.5489
11.6359
11.7412
11.8486
11.9435
12.0253
12.0789
12.1043
12.1123
12.1036
12.0684
12.0034
11.9297
11.8916
11.9173
12.0011
12.1065
12.2143
12.3049
12.3689
12.3946
12.399
12.3761
12.3119
12.2149
12.1343
12.1177
12.1778
12.2749
12.4038
12.5184
12.5787
12.5807
12.5381
12.4623
12.3728
12.2937
12.2936
12.3492
12.4117
12.4568
12.5007
12.534
12.6115
12.6477
12.5946
12.4803
12.3691
12.3458
12.3361
12.3948
12.4555
12.5988
12.7151
1
1
1
1
1
1
1
1
1
1
1
1
1
1
1
1
1
1
1
1
1
1
1
1
1
1
1
1
1
1
1
1
1
1
1
1
1
1
1
1
1
1
1
1
1
1
1
1
1
1
1
1
1
1
1
1
1
1
1
1
1
1
1
1
1
1
1
1
1
1
1
1
1
1
1
1
1
1
1
1
1
1
1
1
1
1
1
1
1
1
1
1
1
1
1
1
1
1
1
1
1
1
1
1
1
1
1
1
1
1
1
1
1
1
1
1
1
1
1
1
1
1
1
1
1
1
1
6.13989
11.4696
11.6242
11.6621
11.6992
11.7125
11.721
11.6974
11.6352
11.5607
11.5253
11.5508
11.6401
11.7461
11.8517
11.9461
12.0265
12.0788
12.1032
12.1106
12.1008
12.0641
11.9984
11.9256
11.8897
11.9178
12.0035
12.1094
12.2167
12.3062
12.3687
12.3935
12.3967
12.3725
12.3074
12.2107
12.1318
12.1178
12.1787
12.2762
12.4045
12.5187
12.5786
12.5808
12.537
12.4594
12.3675
12.2872
12.2911
12.351
12.4123
12.4589
12.5023
12.5333
12.6098
12.6448
12.5909
12.4773
12.3677
12.3461
12.3366
12.3955
12.4543
12.5971
12.7129
1
1
1
1
1
1
1
1
1
1
1
1
1
1
1
1
1
1
1
1
1
1
1
1
1
1
1
1
1
1
1
1
1
1
1
1
1
1
1
1
1
1
1
1
1
1
1
1
1
1
1
1
1
1
1
1
1
1
1
1
1
1
1
1
1
1
1
1
1
1
1
1
1
1
1
1
1
1
1
1
1
1
1
1
1
1
1
1
1
1
1
1
1
1
1
1
1
1
1
1
1
1
1
1
1
1
1
1
1
1
1
1
1
1
1
1
1
1
1
1
1
1
1
1
1
1
1
6.05719
11.4587
11.626
11.6598
11.6941
11.7062
11.7134
11.6868
11.6228
11.5515
11.5215
11.554
11.646
11.7531
11.8567
11.9497
12.0276
12.0778
12.1009
12.1072
12.0959
12.0573
11.9908
11.9195
11.8868
11.9188
12.0072
12.1136
12.2201
12.308
12.3685
12.3915
12.3929
12.3667
12.3005
12.2048
12.1287
12.1185
12.1809
12.2786
12.4061
12.5201
12.5793
12.5807
12.535
12.4547
12.36
12.2792
12.2891
12.3536
12.4139
12.4617
12.5045
12.5323
12.6069
12.6399
12.5849
12.4729
12.3661
12.3468
12.3379
12.3965
12.4532
12.5946
12.7094
1
1
1
1
1
1
1
1
1
1
1
1
1
1
1
1
1
1
1
1
1
1
1
1
1
1
1
1
1
1
1
1
1
1
1
1
1
1
1
1
1
1
1
1
1
1
1
1
1
1
1
1
1
1
1
1
1
1
1
1
1
1
1
1
1
1
1
1
1
1
1
1
1
1
1
1
1
1
1
1
1
1
1
1
1
1
1
1
1
1
1
1
1
1
1
1
1
1
1
1
1
1
1
1
1
1
1
1
1
1
1
1
1
1
1
1
1
1
1
1
1
1
1
1
1
1
1
5.94969
11.4469
11.6254
11.6546
11.6862
11.6969
11.7033
11.6732
11.607
11.5401
11.5171
11.5591
11.6536
11.7622
11.8642
11.9551
12.0292
12.0761
12.0972
12.1023
12.0891
12.0482
11.9808
11.9117
11.8833
11.9212
12.0127
12.1192
12.2245
12.3105
12.3683
12.389
12.3875
12.3587
12.2911
12.1969
12.1248
12.1198
12.184
12.2818
12.4082
12.5216
12.58
12.5796
12.5309
12.4471
12.3499
12.2706
12.2878
12.3564
12.417
12.4656
12.5067
12.5313
12.6033
12.6332
12.577
12.4673
12.3645
12.3481
12.3402
12.398
12.4519
12.591
12.7042
1
1
1
1
1
1
1
1
1
1
1
1
1
1
1
1
1
1
1
1
1
1
1
1
1
1
1
1
1
1
1
1
1
1
1
1
1
1
1
1
1
1
1
1
1
1
1
1
1
1
1
1
1
1
1
1
1
1
1
1
1
1
1
1
1
1
1
1
1
1
1
1
1
1
1
1
1
1
1
1
1
1
1
1
1
1
1
1
1
1
1
1
1
1
1
1
1
1
1
1
1
1
1
1
1
1
1
1
1
1
1
1
1
1
1
1
1
1
1
1
1
1
1
1
1
1
1
5.81618
11.4331
11.6226
11.6473
11.6769
11.6857
11.6907
11.6558
11.5876
11.5276
11.5136
11.5663
11.6633
11.773
11.8735
11.9618
12.0313
12.0737
12.0919
12.0952
12.0798
12.0365
11.9684
11.9024
11.8796
11.9254
12.0195
12.1257
12.2297
12.3134
12.368
12.3858
12.3806
12.3482
12.2788
12.1871
12.1201
12.1219
12.1882
12.2857
12.4109
12.523
12.5804
12.5773
12.5243
12.4364
12.3378
12.2615
12.2868
12.3595
12.4221
12.4709
12.5089
12.5305
12.5989
12.6243
12.5664
12.4604
12.3629
12.3502
12.3434
12.4001
12.4504
12.5861
12.697
1
1
1
1
1
1
1
1
1
1
1
1
1
1
1
1
1
1
1
1
1
1
1
1
1
1
1
1
1
1
1
1
1
1
1
1
1
1
1
1
1
1
1
1
1
1
1
1
1
1
1
1
1
1
1
1
1
1
1
1
1
1
1
1
1
1
1
1
1
1
1
1
1
1
1
1
1
1
1
1
1
1
1
1
1
1
1
1
1
1
1
1
1
1
1
1
1
1
1
1
1
1
1
1
1
1
1
1
1
1
1
1
1
1
1
1
1
1
1
1
1
1
1
1
1
1
1
5.65655
11.4164
11.6172
11.6369
11.6661
11.6732
11.6757
11.635
11.5656
11.5146
11.5113
11.5753
11.6753
11.7858
11.8842
11.9692
12.0332
12.07
12.0849
12.086
12.0678
12.0219
11.9535
11.8919
11.8766
11.9317
12.0277
12.1332
12.2354
12.3168
12.3675
12.3818
12.3718
12.3352
12.2638
12.175
12.1147
12.1253
12.1937
12.2904
12.414
12.5247
12.581
12.5745
12.5161
12.4234
12.3238
12.2515
12.2856
12.3633
12.4287
12.4773
12.5113
12.5293
12.593
12.6127
12.553
12.4521
12.3618
12.3532
12.3479
12.4029
12.4488
12.58
12.6876
1
1
1
1
1
1
1
1
1
1
1
1
1
1
1
1
1
1
1
1
1
1
1
1
1
1
1
1
1
1
1
1
1
1
1
1
1
1
1
1
1
1
1
1
1
1
1
1
1
1
1
1
1
1
1
1
1
1
1
1
1
1
1
1
1
1
1
1
1
1
1
1
1
1
1
1
1
1
1
1
1
1
1
1
1
1
1
1
1
1
1
1
1
1
1
1
1
1
1
1
1
1
1
1
1
1
1
1
1
1
1
1
1
1
1
1
1
1
1
1
1
1
1
1
1
1
1
5.47158
11.3947
11.6086
11.6233
11.6542
11.6597
11.6577
11.6096
11.5411
11.5013
11.5107
11.5867
11.6904
11.8005
11.8961
11.9769
12.0342
12.0646
12.0761
12.0745
12.0532
12.0044
11.936
11.8806
11.875
11.9402
12.0378
12.1418
12.2416
12.3202
12.3664
12.3766
12.361
12.3196
12.246
12.1612
12.109
12.1307
12.2007
12.2959
12.4175
12.5264
12.5816
12.571
12.5062
12.4077
12.3073
12.2405
12.2844
12.3679
12.4368
12.485
12.5141
12.5282
12.5858
12.5981
12.5368
12.4429
12.361
12.3572
12.3539
12.4065
12.4473
12.5725
12.6756
1
1
1
1
1
1
1
1
1
1
1
1
1
1
1
1
1
1
1
1
1
1
1
1
1
1
1
1
1
1
1
1
1
1
1
1
1
1
1
1
1
1
1
1
1
1
1
1
1
1
1
1
1
1
1
1
1
1
1
1
1
1
1
1
1
1
1
1
1
1
1
1
1
1
1
1
1
1
1
1
1
1
1
1
1
1
1
1
1
1
1
1
1
1
1
1
1
1
1
1
1
1
1
1
1
1
1
1
1
1
1
1
1
1
1
1
1
1
1
1
1
1
1
1
1
1
1
5.2626
11.3646
11.5957
11.6064
11.6414
11.645
11.6351
11.5787
11.5154
11.4887
11.5141
11.601
11.7091
11.8169
11.9088
11.9839
12.0335
12.0571
12.0654
12.0608
12.0359
11.984
11.9163
11.8689
11.8753
11.9506
12.0497
12.1512
12.2477
12.3233
12.3645
12.3699
12.348
12.3012
12.2257
12.1461
12.104
12.1381
12.2092
12.302
12.4208
12.5279
12.5817
12.5668
12.4948
12.3896
12.2882
12.2286
12.2832
12.3732
12.4465
12.4935
12.5174
12.5269
12.5768
12.5804
12.5179
12.4326
12.3609
12.3621
12.3614
12.411
12.4458
12.5635
12.661
1
1
1
1
1
1
1
1
1
1
1
1
1
1
1
1
1
1
1
1
1
1
1
1
1
1
1
1
1
1
1
1
1
1
1
1
1
1
1
1
1
1
1
1
1
1
1
1
1
1
1
1
1
1
1
1
1
1
1
1
1
1
1
1
1
1
1
1
1
1
1
1
1
1
1
1
1
1
1
1
1
1
1
1
1
1
1
1
1
1
1
1
1
1
1
1
1
1
1
1
1
1
1
1
1
1
1
1
1
1
1
1
1
1
1
1
1
1
1
1
1
1
1
1
1
1
1
5.03132
11.3207
11.5771
11.5865
11.628
11.6283
11.6055
11.5426
11.4901
11.4785
11.5245
11.6196
11.731
11.8347
11.9216
11.9891
12.0302
12.0475
12.0527
12.0452
12.0161
11.961
11.8948
11.8571
11.879
11.9632
12.063
12.1614
12.2538
12.3255
12.3614
12.3614
12.3324
12.2797
12.2029
12.1305
12.1004
12.1471
12.2195
12.3087
12.424
12.529
12.5811
12.5615
12.4817
12.369
12.2667
12.2161
12.282
12.3793
12.4573
12.503
12.521
12.5255
12.5658
12.5597
12.4968
12.4216
12.3612
12.368
12.3705
12.4164
12.4444
12.5533
12.6436
1
1
1
1
1
1
1
1
1
1
1
1
1
1
1
1
1
1
1
1
1
1
1
1
1
1
1
1
1
1
1
1
1
1
1
1
1
1
1
1
1
1
1
1
1
1
1
1
1
1
1
1
1
1
1
1
1
1
1
1
1
1
1
1
1
1
1
1
1
1
1
1
1
1
1
1
1
1
1
1
1
1
1
1
1
1
1
1
1
1
1
1
1
1
1
1
1
1
1
1
1
1
1
1
1
1
1
1
1
1
1
1
1
1
1
1
1
1
1
1
1
1
1
1
1
1
1
4.77928
11.2568
11.5523
11.5653
11.614
11.6069
11.5666
11.5039
11.4676
11.4738
11.542
11.6441
11.7555
11.853
11.9336
11.9918
12.0235
12.0358
12.0383
12.0278
11.9939
11.9353
11.8727
11.8456
11.8865
11.9778
12.0771
12.1719
12.2594
12.3263
12.3569
12.3509
12.3143
12.2551
12.1777
12.1153
12.0987
12.1574
12.2311
12.3159
12.427
12.5296
12.5795
12.5548
12.4667
12.3458
12.2432
12.2036
12.2814
12.3862
12.4692
12.5131
12.5248
12.5235
12.5523
12.5358
12.4739
12.41
12.3618
12.3749
12.3809
12.4225
12.443
12.5416
12.6232
1
1
1
1
1
1
1
1
1
1
1
1
1
1
1
1
1
1
1
1
1
1
1
1
1
1
1
1
1
1
1
1
1
1
1
1
1
1
1
1
1
1
1
1
1
1
1
1
1
1
1
1
1
1
1
1
1
1
1
1
1
1
1
1
1
1
1
1
1
1
1
1
1
1
1
1
1
1
1
1
1
1
1
1
1
1
1
1
1
1
1
1
1
1
1
1
1
1
1
1
1
1
1
1
1
1
1
1
1
1
1
1
1
1
1
1
1
1
1
1
1
1
1
1
1
1
1
4.50606
11.1648
11.5255
11.5451
11.5975
11.5753
11.5197
11.468
11.4512
11.4795
11.5657
11.6732
11.7806
11.871
11.9434
11.9911
12.0134
12.022
12.0223
12.0084
11.9695
11.9073
11.85
11.8368
11.8978
11.9944
12.0918
12.1825
12.2642
12.3255
12.3507
12.3385
12.2937
12.2275
12.1503
12.1012
12.1006
12.1682
12.2426
12.3236
12.43
12.5296
12.5766
12.5463
12.4493
12.3201
12.2183
12.1922
12.2819
12.3939
12.4812
12.5234
12.5287
12.5205
12.5363
12.5091
12.4495
12.3981
12.3626
12.3827
12.3927
12.4292
12.4416
12.5287
12.6
1
1
1
1
1
1
1
1
1
1
1
1
1
1
1
1
1
1
1
1
1
1
1
1
1
1
1
1
1
1
1
1
1
1
1
1
1
1
1
1
1
1
1
1
1
1
1
1
1
1
1
1
1
1
1
1
1
1
1
1
1
1
1
1
1
1
1
1
1
1
1
1
1
1
1
1
1
1
1
1
1
1
1
1
1
1
1
1
1
1
1
1
1
1
1
1
1
1
1
1
1
1
1
1
1
1
1
1
1
1
1
1
1
1
1
1
1
1
1
1
1
1
1
1
1
1
1
4.20746
11.0352
11.5077
11.5285
11.5697
11.5293
11.4724
11.4398
11.4427
11.4979
11.5946
11.7043
11.8048
11.8875
11.9494
11.9859
12.0004
12.0061
12.0048
11.987
11.9424
11.8771
11.8278
11.833
11.9123
12.0126
12.1067
12.1926
12.2677
12.3227
12.3428
12.3239
12.2707
12.1972
12.1211
12.0881
12.106
12.1797
12.2541
12.3315
12.4327
12.5285
12.5721
12.5358
12.4293
12.292
12.193
12.1827
12.2838
12.4022
12.4928
12.5333
12.5324
12.5164
12.5178
12.4796
12.424
12.386
12.3639
12.3912
12.4054
12.4366
12.4403
12.5145
12.5737
1
1
1
1
1
1
1
1
1
1
1
1
1
1
1
1
1
1
1
1
1
1
1
1
1
1
1
1
1
1
1
1
1
1
1
1
1
1
1
1
1
1
1
1
1
1
1
1
1
1
1
1
1
1
1
1
1
1
1
1
1
1
1
1
1
1
1
1
1
1
1
1
1
1
1
1
1
1
1
1
1
1
1
1
1
1
1
1
1
1
1
1
1
1
1
1
1
1
1
1
1
1
1
1
1
1
1
1
1
1
1
1
1
1
1
1
1
1
1
1
1
1
1
1
1
1
1
3.8861
10.8655
11.4985
11.5076
11.5263
11.4743
11.4331
11.4233
11.4465
11.5246
11.6276
11.7348
11.827
11.9008
11.9509
11.9755
11.9847
11.9887
11.9856
11.963
11.9123
11.8463
11.807
11.8364
11.9297
12.0315
12.1214
12.2018
12.2696
12.3177
12.3327
12.3069
12.2455
12.1648
12.0911
12.0761
12.1142
12.1926
12.2658
12.3392
12.4346
12.526
12.5658
12.5228
12.4065
12.2623
12.1682
12.1754
12.2868
12.411
12.5035
12.5423
12.5354
12.5109
12.4968
12.448
12.3976
12.3739
12.3659
12.4004
12.419
12.4444
12.4393
12.4989
12.5445
1
1
1
1
1
1
1
1
1
1
1
1
1
1
1
1
1
1
1
1
1
1
1
1
1
1
1
1
1
1
1
1
1
1
1
1
1
1
1
1
1
1
1
1
1
1
1
1
1
1
1
1
1
1
1
1
1
1
1
1
1
1
1
1
1
1
1
1
1
1
1
1
1
1
1
1
1
1
1
1
1
1
1
1
1
1
1
1
1
1
1
1
1
1
1
1
1
1
1
1
1
1
1
1
1
1
1
1
1
1
1
1
1
1
1
1
1
1
1
1
1
1
1
1
1
1
1
3.54537
10.6491
11.4929
11.4768
11.4678
11.4232
11.4081
11.4185
11.466
11.5566
11.6619
11.7627
11.846
11.9087
11.9466
11.9611
11.9669
11.9699
11.9643
11.9357
11.8786
11.8158
11.7912
11.8474
11.9494
12.0504
12.1356
12.2093
12.2694
12.3105
12.3199
12.2873
12.218
12.1306
12.062
12.0662
12.1243
12.2069
12.2776
12.3462
12.4352
12.5216
12.5571
12.507
12.3813
12.2317
12.1451
12.1703
12.2904
12.4201
12.5127
12.5508
12.5378
12.5036
12.4734
12.4142
12.3704
12.3621
12.3686
12.4104
12.4331
12.4523
12.4383
12.4817
12.5127
1
1
1
1
1
1
1
1
1
1
1
1
1
1
1
1
1
1
1
1
1
1
1
1
1
1
1
1
1
1
1
1
1
1
1
1
1
1
1
1
1
1
1
1
1
1
1
1
1
1
1
1
1
1
1
1
1
1
1
1
1
1
1
1
1
1
1
1
1
1
1
1
1
1
1
1
1
1
1
1
1
1
1
1
1
1
1
1
1
1
1
1
1
1
1
1
1
1
1
1
1
1
1
1
1
1
1
1
1
1
1
1
1
1
1
1
1
1
1
1
1
1
1
1
1
1
1
3.18792
10.3782
11.4859
11.4318
11.4034
11.3863
11.3978
11.4277
11.497
11.5929
11.6953
11.7867
11.8598
11.9099
11.9353
11.9439
11.9479
11.9498
11.9399
11.9041
11.8418
11.7865
11.7845
11.8638
11.9709
12.069
12.1489
12.2147
12.2668
12.3009
12.3041
12.2647
12.1881
12.0949
12.036
12.0597
12.1358
12.2224
12.2891
12.3521
12.4341
12.5148
12.5455
12.4883
12.3541
12.2014
12.1246
12.1671
12.2944
12.428
12.5209
12.5586
12.5397
12.4946
12.4472
12.3784
12.3428
12.3505
12.372
12.4214
12.4477
12.4598
12.4376
12.4635
12.4784
1
1
1
1
1
1
1
1
1
1
1
1
1
1
1
1
1
1
1
1
1
1
1
1
1
1
1
1
1
1
1
1
1
1
1
1
1
1
1
1
1
1
1
1
1
1
1
1
1
1
1
1
1
1
1
1
1
1
1
1
1
1
1
1
1
1
1
1
1
1
1
1
1
1
1
1
1
1
1
1
1
1
1
1
1
1
1
1
1
1
1
1
1
1
1
1
1
1
1
1
1
1
1
1
1
1
1
1
1
1
1
1
1
1
1
1
1
1
1
1
1
1
1
1
1
1
1
2.8257
10.0486
11.4529
11.3692
11.351
11.3708
11.3999
11.4519
11.5352
11.631
11.7255
11.8053
11.8656
11.9034
11.9188
11.9245
11.9279
11.9275
11.9114
11.8678
11.8041
11.7609
11.7893
11.8848
11.9933
12.0867
12.1605
12.2174
12.2611
12.2884
12.2849
12.2387
12.1554
12.0585
12.0139
12.0584
12.1493
12.2378
12.3001
12.3568
12.431
12.5052
12.5307
12.4665
12.3253
12.1725
12.1076
12.1655
12.2987
12.4342
12.5291
12.5653
12.5407
12.4841
12.4181
12.3404
12.3147
12.3395
12.3762
12.4331
12.4624
12.4667
12.4366
12.4444
12.4418
1
1
1
1
1
1
1
1
1
1
1
1
1
1
1
1
1
1
1
1
1
1
1
1
1
1
1
1
1
1
1
1
1
1
1
1
1
1
1
1
1
1
1
1
1
1
1
1
1
1
1
1
1
1
1
1
1
1
1
1
1
1
1
1
1
1
1
1
1
1
1
1
1
1
1
1
1
1
1
1
1
1
1
1
1
1
1
1
1
1
1
1
1
1
1
1
1
1
1
1
1
1
1
1
1
1
1
1
1
1
1
1
1
1
1
1
1
1
1
1
1
1
1
1
1
1
1
2.4583
9.63938
11.3953
11.3046
11.3316
11.3688
11.4161
11.4894
11.5776
11.6675
11.75
11.816
11.8626
11.8889
11.8989
11.9034
11.9062
11.9022
11.878
11.8267
11.768
11.7447
11.8047
11.9094
12.0152
12.1029
12.1695
12.217
12.2523
12.2724
12.2621
12.2093
12.12
12.0231
11.9968
12.0625
12.1646
12.2528
12.3103
12.3601
12.4259
12.4926
12.5121
12.4411
12.2951
12.1461
12.0948
12.1652
12.3032
12.4393
12.5366
12.5707
12.5403
12.4719
12.3863
12.3003
12.2864
12.3298
12.3811
12.4455
12.4771
12.4729
12.4355
12.4245
12.403
1
1
1
1
1
1
1
1
1
1
1
1
1
1
1
1
1
1
1
1
1
1
1
1
1
1
1
1
1
1
1
1
1
1
1
1
1
1
1
1
1
1
1
1
1
1
1
1
1
1
1
1
1
1
1
1
1
1
1
1
1
1
1
1
1
1
1
1
1
1
1
1
1
1
1
1
1
1
1
1
1
1
1
1
1
1
1
1
1
1
1
1
1
1
1
1
1
1
1
1
1
1
1
1
1
1
1
1
1
1
1
1
1
1
1
1
1
1
1
1
1
1
1
1
1
1
1
2.0848
9.13816
11.3312
11.2635
11.3278
11.3799
11.4508
11.5338
11.6189
11.6977
11.765
11.8173
11.852
11.8691
11.8762
11.8805
11.8825
11.8728
11.8392
11.7828
11.7357
11.7441
11.8275
11.9358
12.0359
12.1166
12.1753
12.2128
12.2401
12.2526
12.2357
12.1762
12.0819
11.9901
11.9867
12.0712
12.1805
12.2674
12.3198
12.3619
12.4185
12.4766
12.489
12.4116
12.2638
12.123
12.0868
12.1663
12.3078
12.4434
12.5424
12.5749
12.5384
12.4578
12.3523
12.2582
12.2574
12.3213
12.3866
12.4583
12.4912
12.4785
12.434
12.4037
12.3624
1
1
1
1
1
1
1
1
1
1
1
1
1
1
1
1
1
1
1
1
1
1
1
1
1
1
1
1
1
1
1
1
1
1
1
1
1
1
1
1
1
1
1
1
1
1
1
1
1
1
1
1
1
1
1
1
1
1
1
1
1
1
1
1
1
1
1
1
1
1
1
1
1
1
1
1
1
1
1
1
1
1
1
1
1
1
1
1
1
1
1
1
1
1
1
1
1
1
1
1
1
1
1
1
1
1
1
1
1
1
1
1
1
1
1
1
1
1
1
1
1
1
1
1
1
1
1
1.71715
8.54526
11.2668
11.2708
11.3435
11.4163
11.4993
11.5782
11.652
11.7151
11.7692
11.8097
11.8345
11.8451
11.8509
11.8562
11.8561
11.838
11.7948
11.7408
11.7129
11.759
11.8561
11.9618
12.0545
12.127
12.1767
12.2049
12.2236
12.2289
12.2056
12.1397
12.0418
11.9617
11.9843
12.0832
12.1963
12.2812
12.3285
12.3623
12.4087
12.4568
12.4609
12.3776
12.2318
12.1047
12.0841
12.1685
12.3123
12.4465
12.5464
12.5775
12.5348
12.4414
12.3163
12.2154
12.2285
12.3134
12.3924
12.4715
12.5042
12.4837
12.4323
12.3819
12.32
1
1
1
1
1
1
1
1
1
1
1
1
1
1
1
1
1
1
1
1
1
1
1
1
1
1
1
1
1
1
1
1
1
1
1
1
1
1
1
1
1
1
1
1
1
1
1
1
1
1
1
1
1
1
1
1
1
1
1
1
1
1
1
1
1
1
1
1
1
1
1
1
1
1
1
1
1
1
1
1
1
1
1
1
1
1
1
1
1
1
1
1
1
1
1
1
1
1
1
1
1
1
1
1
1
1
1
1
1
1
1
1
1
1
1
1
1
1
1
1
1
1
1
1
1
1
1
1.37569
7.8594
11.2531
11.3197
11.3998
11.4716
11.5471
11.6107
11.6676
11.7197
11.7648
11.7944
11.8099
11.8174
11.8248
11.8311
11.8257
11.7964
11.7462
11.7042
11.7091
11.7851
11.887
11.9853
12.0699
12.1336
12.1732
12.1928
12.2029
12.2013
12.1715
12.0998
12.0015
11.941
11.9891
12.0972
12.2116
12.294
12.3359
12.3612
12.3963
12.4329
12.4273
12.3389
12.1997
12.0921
12.087
12.1719
12.3164
12.4489
12.5478
12.578
12.529
12.4222
12.2779
12.1735
12.2008
12.305
12.3982
12.4845
12.5158
12.4887
12.4304
12.3592
12.2761
1
1
1
1
1
1
1
1
1
1
1
1
1
1
1
1
1
1
1
1
1
1
1
1
1
1
1
1
1
1
1
1
1
1
1
1
1
1
1
1
1
1
1
1
1
1
1
1
1
1
1
1
1
1
1
1
1
1
1
1
1
1
1
1
1
1
1
1
1
1
1
1
1
1
1
1
1
1
1
1
1
1
1
1
1
1
1
1
1
1
1
1
1
1
1
1
1
1
1
1
1
1
1
1
1
1
1
1
1
1
1
1
1
1
1
1
1
1
1
1
1
1
1
1
1
1
1
1.10507
7.15979
11.3104
11.4081
11.4643
11.5172
11.5735
11.6218
11.6704
11.7166
11.7512
11.7706
11.7807
11.7893
11.7998
11.804
11.7878
11.7472
11.7004
11.6799
11.7252
11.8179
11.9166
12.0053
12.0807
12.1356
12.1651
12.1761
12.1779
12.1698
12.1334
12.0565
11.9635
11.9305
11.9991
12.1124
12.2254
12.3049
12.3418
12.3582
12.381
12.4043
12.3875
12.2959
12.1687
12.086
12.0953
12.1768
12.3186
12.4503
12.5468
12.576
12.521
12.3996
12.2372
12.1338
12.1749
12.2958
12.4037
12.4967
12.5254
12.4939
12.4276
12.3355
12.2313
1
1
1
1
1
1
1
1
1
1
1
1
1
1
1
1
1
1
1
1
1
1
1
1
1
1
1
1
1
1
1
1
1
1
1
1
1
1
1
1
1
1
1
1
1
1
1
1
1
1
1
1
1
1
1
1
1
1
1
1
1
1
1
1
1
1
1
1
1
1
1
1
1
1
1
1
1
1
1
1
1
1
1
1
1
1
1
1
1
1
1
1
1
1
1
1
1
1
1
1
1
1
1
1
1
1
1
1
1
1
1
1
1
1
1
1
1
1
1
1
1
1
1
1
1
1
1
1.00139
6.53005
11.3252
11.4633
11.4866
11.535
11.5792
11.6214
11.6666
11.7052
11.7279
11.7403
11.7513
11.7639
11.7746
11.7698
11.7402
11.6954
11.6637
11.6785
11.7552
11.8522
11.9425
12.0212
12.0863
12.1318
12.1523
12.1553
12.1493
12.1343
12.091
12.0111
11.9303
11.9323
12.0135
12.1273
12.237
12.3136
12.3458
12.3532
12.3622
12.3706
12.3414
12.2495
12.1405
12.0864
12.1083
12.1837
12.3189
12.4498
12.5442
12.5711
12.5096
12.3728
12.1954
12.098
12.1514
12.2858
12.4083
12.5064
12.5345
12.4986
12.423
12.3113
12.1861
1
1
1
1
1
1
1
1
1
1
1
1
1
1
1
1
1
1
1
1
1
1
1
1
1
1
1
1
1
1
1
1
1
1
1
1
1
1
1
1
1
1
1
1
1
1
1
1
1
1
1
1
1
1
1
1
1
1
1
1
1
1
1
1
1
1
1
1
1
1
1
1
1
1
1
1
1
1
1
1
1
1
1
1
1
1
1
1
1
1
1
1
1
1
1
1
1
1
1
1
1
1
1
1
1
1
1
1
1
1
1
1
1
1
1
1
1
1
1
1
1
1
1
1
1
1
1
1
5.89936
11.2654
11.4645
11.4845
11.5321
11.5721
11.6151
11.6547
11.6834
11.6974
11.7093
11.725
11.7396
11.7436
11.7247
11.6869
11.6512
11.6449
11.6987
11.7913
11.8837
11.9635
12.0321
12.0859
12.1217
12.135
12.1308
12.1175
12.0943
12.0435
11.9658
11.9075
11.9436
12.0311
12.1415
12.2461
12.3195
12.3474
12.3456
12.3396
12.3312
12.2891
12.2015
12.1167
12.0932
12.1246
12.1922
12.3174
12.4466
12.5395
12.563
12.4935
12.3416
12.1538
12.0674
12.1304
12.2751
12.4111
12.5136
12.5426
12.5025
12.4155
12.2865
12.1419
1
1
1
1
1
1
1
1
1
1
1
1
1
1
1
1
1
1
1
1
1
1
1
1
1
1
1
1
1
1
1
1
1
1
1
1
1
1
1
1
1
1
1
1
1
1
1
1
1
1
1
1
1
1
1
1
1
1
1
1
1
1
1
1
1
1
1
1
1
1
1
1
1
1
1
1
1
1
1
1
1
1
1
1
1
1
1
1
1
1
1
1
1
1
1
1
1
1
1
1
1
1
1
1
1
1
1
1
1
1
1
1
1
1
1
1
1
1
1
1
1
1
1
1
1
1
1
1
5.30561
11.135
11.4386
11.4727
11.5209
11.5588
11.6016
11.633
11.6533
11.6661
11.6827
11.7006
11.7104
11.7011
11.6721
11.6382
11.6218
11.6517
11.733
11.8271
11.9102
11.9793
12.0361
12.0795
12.106
12.1132
12.1032
12.083
12.0498
11.9911
11.9245
11.8995
11.9598
12.0507
12.154
12.2522
12.3221
12.3463
12.3349
12.3124
12.286
12.2313
12.1543
12.0996
12.1057
12.1431
12.202
12.3144
12.4404
12.5322
12.5509
12.4715
12.3058
12.1145
12.043
12.1118
12.2636
12.4117
12.5179
12.5495
12.5043
12.4056
12.2608
12.0998
1
1
1
1
1
1
1
1
1
1
1
1
1
1
1
1
1
1
1
1
1
1
1
1
1
1
1
1
1
1
1
1
1
1
1
1
1
1
1
1
1
1
1
1
1
1
1
1
1
1
1
1
1
1
1
1
1
1
1
1
1
1
1
1
1
1
1
1
1
1
1
1
1
1
1
1
1
1
1
1
1
1
1
1
1
1
1
1
1
1
1
1
1
1
1
1
1
1
1
1
1
1
1
1
1
1
1
1
1
1
1
1
1
1
1
1
1
1
1
1
1
1
1
1
1
1
1
1
4.73786
10.9595
11.4072
11.4562
11.5074
11.5441
11.5802
11.6055
11.6231
11.64
11.6596
11.6722
11.6698
11.6493
11.6212
11.6037
11.616
11.6794
11.7711
11.8582
11.9307
11.9888
12.033
12.0658
12.0852
12.0875
12.0736
12.0458
12.0002
11.9362
11.891
11.9076
11.9807
12.0699
12.1636
12.2553
12.3213
12.3418
12.3203
12.2805
12.2349
12.1696
12.111
12.091
12.1224
12.1619
12.2123
12.3104
12.431
12.5213
12.5339
12.4433
12.2662
12.0799
12.0251
12.0956
12.251
12.4096
12.5198
12.5538
12.5032
12.3929
12.2339
12.061
1
1
1
1
1
1
1
1
1
1
1
1
1
1
1
1
1
1
1
1
1
1
1
1
1
1
1
1
1
1
1
1
1
1
1
1
1
1
1
1
1
1
1
1
1
1
1
1
1
1
1
1
1
1
1
1
1
1
1
1
1
1
1
1
1
1
1
1
1
1
1
1
1
1
1
1
1
1
1
1
1
1
1
1
1
1
1
1
1
1
1
1
1
1
1
1
1
1
1
1
1
1
1
1
1
1
1
1
1
1
1
1
1
1
1
1
1
1
1
1
1
1
1
1
1
1
1
1
4.14465
10.7167
11.402
11.4461
11.4972
11.5286
11.5573
11.5817
11.5991
11.6177
11.631
11.6322
11.6187
11.5979
11.5839
11.5888
11.6345
11.7179
11.8062
11.8827
11.9443
11.9901
12.0226
12.0459
12.0592
12.059
12.0419
12.0049
11.9455
11.8849
11.8708
11.9252
12.0058
12.0873
12.17
12.2545
12.3164
12.3334
12.3018
12.2435
12.1783
12.1063
12.0744
12.0914
12.1412
12.1797
12.2218
12.3044
12.4178
12.5061
12.5115
12.4092
12.2242
12.052
12.0134
12.0819
12.2376
12.4047
12.5189
12.555
12.4988
12.377
12.2054
12.027
1
1
1
1
1
1
1
1
1
1
1
1
1
1
1
1
1
1
1
1
1
1
1
1
1
1
1
1
1
1
1
1
1
1
1
1
1
1
1
1
1
1
1
1
1
1
1
1
1
1
1
1
1
1
1
1
1
1
1
1
1
1
1
1
1
1
1
1
1
1
1
1
1
1
1
1
1
1
1
1
1
1
1
1
1
1
1
1
1
1
1
1
1
1
1
1
1
1
1
1
1
1
1
1
1
1
1
1
1
1
1
1
1
1
1
1
1
1
1
1
1
1
1
1
1
1
1
1
3.48146
10.3623
11.4378
11.4357
11.4873
11.5172
11.5409
11.5612
11.5746
11.5875
11.5897
11.5815
11.5677
11.5595
11.5648
11.599
11.6709
11.756
11.8341
11.8995
11.9491
11.9831
12.0046
12.0198
12.0294
12.0284
12.0071
11.9587
11.8878
11.8439
11.8695
11.9483
12.031
12.1015
12.1728
12.2494
12.307
12.3202
12.2788
12.2015
12.1172
12.0453
12.0472
12.0989
12.1601
12.1961
12.23
12.2965
12.4005
12.4857
12.483
12.3692
12.182
12.0319
12.007
12.0712
12.2239
12.3968
12.5143
12.5523
12.4906
12.3573
12.175
11.9992
1
1
1
1
1
1
1
1
1
1
1
1
1
1
1
1
1
1
1
1
1
1
1
1
1
1
1
1
1
1
1
1
1
1
1
1
1
1
1
1
1
1
1
1
1
1
1
1
1
1
1
1
1
1
1
1
1
1
1
1
1
1
1
1
1
1
1
1
1
1
1
1
1
1
1
1
1
1
1
1
1
1
1
1
1
1
1
1
1
1
1
1
1
1
1
1
1
1
1
1
1
1
1
1
1
1
1
1
1
1
1
1
1
1
1
1
1
1
1
1
1
1
1
1
1
1
1
1
2.78303
9.86945
11.4929
11.4276
11.474
11.5005
11.5195
11.5315
11.5404
11.5427
11.5387
11.5316
11.5304
11.5399
11.57
11.6315
11.7106
11.7869
11.853
11.9067
11.9451
11.9673
11.9797
11.9891
11.9974
11.9956
11.9672
11.9058
11.834
11.8197
11.8829
11.9753
12.0533
12.1121
12.172
12.2397
12.2921
12.3014
12.2507
12.1545
12.0532
11.9913
12.0301
12.11
12.1781
12.2106
12.2364
12.2867
12.3792
12.4595
12.4476
12.3237
12.1414
12.0195
12.005
12.0644
12.21
12.3856
12.5057
12.545
12.4778
12.3333
12.143
11.9787
1
1
1
1
1
1
1
1
1
1
1
1
1
1
1
1
1
1
1
1
1
1
1
1
1
1
1
1
1
1
1
1
1
1
1
1
1
1
1
1
1
1
1
1
1
1
1
1
1
1
1
1
1
1
1
1
1
1
1
1
1
1
1
1
1
1
1
1
1
1
1
1
1
1
1
1
1
1
1
1
1
1
1
1
1
1
1
1
1
1
1
1
1
1
1
1
1
1
1
1
1
1
1
1
1
1
1
1
1
1
1
1
1
1
1
1
1
1
1
1
1
1
1
1
1
1
1
1
2.11718
9.19294
11.5154
11.4045
11.4474
11.4689
11.4826
11.4865
11.4925
11.4914
11.4912
11.4972
11.5129
11.544
11.5989
11.6713
11.7434
11.8074
11.8618
11.9038
11.9311
11.9438
11.9494
11.9561
11.9641
11.9585
11.9199
11.848
11.7914
11.8175
11.9052
12.0013
12.0721
12.1193
12.1675
12.225
12.2712
12.2764
12.2167
12.103
11.9891
11.9484
12.0225
12.1224
12.1942
12.223
12.2411
12.2753
12.3535
12.4262
12.4044
12.2734
12.1041
12.0144
12.0069
12.0616
12.1962
12.3708
12.4926
12.5325
12.4595
12.3052
12.11
11.966
1
1
1
1
1
1
1
1
1
1
1
1
1
1
1
1
1
1
1
1
1
1
1
1
1
1
1
1
1
1
1
1
1
1
1
1
1
1
1
1
1
1
1
1
1
1
1
1
1
1
1
1
1
1
1
1
1
1
1
1
1
1
1
1
1
1
1
1
1
1
1
1
1
1
1
1
1
1
1
1
1
1
1
1
1
1
1
1
1
1
1
1
1
1
1
1
1
1
1
1
1
1
1
1
1
1
1
1
1
1
1
1
1
1
1
1
1
1
1
1
1
1
1
1
1
1
1
1
1.52584
8.2729
11.4325
11.3861
11.4127
11.4208
11.4287
11.4355
11.4424
11.4487
11.462
11.4843
11.5186
11.571
11.6375
11.7046
11.7646
11.8165
11.8595
11.8911
11.9082
11.9143
11.9169
11.9229
11.9284
11.914
11.8637
11.7932
11.7692
11.8316
11.9317
12.0236
12.0864
12.1225
12.159
12.2057
12.2448
12.2442
12.1754
12.0483
11.9304
11.9198
12.0212
12.134
12.208
12.2333
12.2438
12.2624
12.3232
12.3845
12.353
12.2207
12.072
12.0153
12.0123
12.0634
12.182
12.3519
12.4747
12.5142
12.4349
12.2732
12.0788
11.9595
1
1
1
1
1
1
1
1
1
1
1
1
1
1
1
1
1
1
1
1
1
1
1
1
1
1
1
1
1
1
1
1
1
1
1
1
1
1
1
1
1
1
1
1
1
1
1
1
1
1
1
1
1
1
1
1
1
1
1
1
1
1
1
1
1
1
1
1
1
1
1
1
1
1
1
1
1
1
1
1
1
1
1
1
1
1
1
1
1
1
1
1
1
1
1
1
1
1
1
1
1
1
1
1
1
1
1
1
1
1
1
1
1
1
1
1
1
1
1
1
1
1
1
1
1
1
1
1
1.07529
7.18169
11.384
11.3611
11.3536
11.3663
11.3776
11.3918
11.4067
11.4272
11.4566
11.4943
11.5454
11.6069
11.6691
11.7248
11.773
11.8145
11.847
11.8685
11.8793
11.8825
11.8848
11.8891
11.8871
11.8597
11.8027
11.7515
11.7723
11.8556
11.9569
12.0409
12.0949
12.121
12.1465
12.1819
12.2126
12.2043
12.126
11.992
11.8839
11.905
12.0225
12.1432
12.2192
12.2414
12.2442
12.2475
12.2881
12.333
12.2934
12.1691
12.0467
12.0205
12.0219
12.0682
12.1673
12.3289
12.4514
12.4889
12.4034
12.2378
12.0509
11.9583
1
1
1
1
1
1
1
1
1
1
1
1
1
1
1
1
1
1
1
1
1
1
1
1
1
1
1
1
1
1
1
1
1
1
1
1
1
1
1
1
1
1
1
1
1
1
1
1
1
1
1
1
1
1
1
1
1
1
1
1
1
1
1
1
1
1
1
1
1
1
1
1
1
1
1
1
1
1
1
1
1
1
1
1
1
1
1
1
1
1
1
1
1
1
1
1
1
1
1
1
1
1
1
1
1
1
1
1
1
1
1
1
1
1
1
1
1
1
1
1
1
1
1
1
1
1
1
1
1.00053
6.12909
11.2167
11.3053
11.306
11.3253
11.3436
11.3675
11.3948
11.4306
11.472
11.5213
11.5778
11.6347
11.6859
11.731
11.7702
11.8018
11.8251
11.8399
11.8478
11.8513
11.8531
11.8513
11.836
11.7973
11.7488
11.7344
11.7913
11.8827
11.9772
12.0524
12.0971
12.1152
12.1291
12.1528
12.1745
12.1569
12.0693
11.9368
11.8537
11.9003
12.0253
12.1499
12.2275
12.247
12.2417
12.23
12.2482
12.2719
12.2257
12.1193
12.0309
12.0301
12.0344
12.074
12.1525
12.3017
12.4218
12.456
12.3649
12.1998
12.028
11.9616
1
1
1
1
1
1
1
1
1
1
1
1
1
1
1
1
1
1
1
1
1
1
1
1
1
1
1
1
1
1
1
1
1
1
1
1
1
1
1
1
1
1
1
1
1
1
1
1
1
1
1
1
1
1
1
1
1
1
1
1
1
1
1
1
1
1
1
1
1
1
1
1
1
1
1
1
1
1
1
1
1
1
1
1
1
1
1
1
1
1
1
1
1
1
1
1
1
1
1
1
1
1
1
1
1
1
1
1
1
1
1
1
1
1
1
1
1
1
1
1
1
1
1
1
1
1
1
1
1
5.19785
10.9853
11.2548
11.2709
11.303
11.3305
11.3652
11.405
11.451
11.4985
11.5493
11.6003
11.6469
11.6887
11.7256
11.7568
11.7806
11.7971
11.8086
11.8165
11.8206
11.8181
11.805
11.7759
11.7358
11.7134
11.7443
11.8188
11.9066
11.9902
12.0564
12.0937
12.1043
12.1063
12.1177
12.1304
12.1025
12.0074
11.8879
11.8422
11.9025
12.0278
12.1532
12.2323
12.2497
12.2362
12.2092
12.2029
12.202
12.1522
12.0741
12.0234
12.042
12.0489
12.0803
12.1379
12.27
12.3853
12.415
12.319
12.1605
12.0112
11.9681
1
1
1
1
1
1
1
1
1
1
1
1
1
1
1
1
1
1
1
1
1
1
1
1
1
1
1
1
1
1
1
1
1
1
1
1
1
1
1
1
1
1
1
1
1
1
1
1
1
1
1
1
1
1
1
1
1
1
1
1
1
1
1
1
1
1
1
1
1
1
1
1
1
1
1
1
1
1
1
1
1
1
1
1
1
1
1
1
1
1
1
1
1
1
1
1
1
1
1
1
1
1
1
1
1
1
1
1
1
1
1
1
1
1
1
1
1
1
1
1
1
1
1
1
1
1
1
1
1
4.40344
10.6919
11.2009
11.2467
11.2912
11.3332
11.3775
11.426
11.4744
11.5197
11.5652
11.6076
11.6456
11.68
11.7107
11.7355
11.7534
11.7665
11.777
11.7851
11.7865
11.7756
11.7499
11.7136
11.6901
11.7065
11.7691
11.8479
11.924
11.9947
12.0527
12.0842
12.0874
12.0779
12.0765
12.0791
12.0412
11.9447
11.8527
11.8462
11.9088
12.0287
12.1522
12.2325
12.2491
12.2272
12.1842
12.1518
12.1245
12.0761
12.0352
12.022
12.0541
12.0653
12.0866
12.1232
12.2344
12.3407
12.3649
12.2665
12.121
12.0009
11.9768
1
1
1
1
1
1
1
1
1
1
1
1
1
1
1
1
1
1
1
1
1
1
1
1
1
1
1
1
1
1
1
1
1
1
1
1
1
1
1
1
1
1
1
1
1
1
1
1
1
1
1
1
1
1
1
1
1
1
1
1
1
1
1
1
1
1
1
1
1
1
1
1
1
1
1
1
1
1
1
1
1
1
1
1
1
1
1
1
1
1
1
1
1
1
1
1
1
1
1
1
1
1
1
1
1
1
1
1
1
1
1
1
1
1
1
1
1
1
1
1
1
1
1
1
1
1
1
1
1
3.65043
10.3239
11.1846
11.2366
11.2957
11.3428
11.3953
11.4456
11.4877
11.5272
11.5658
11.6016
11.6341
11.6637
11.6892
11.7096
11.7241
11.7355
11.7447
11.7497
11.7443
11.7242
11.6917
11.6632
11.6697
11.723
11.7999
11.8716
11.9335
11.9911
12.0414
12.0676
12.0641
12.0447
12.03
12.0195
11.9735
11.8872
11.8379
11.8591
11.9174
12.0272
12.1459
12.2275
12.2445
12.2145
12.1545
12.0948
12.0418
12.0012
12.0022
12.0241
12.0661
12.083
12.0923
12.1084
12.1962
12.287
12.3049
12.2092
12.0818
11.995
11.9892
1
1
1
1
1
1
1
1
1
1
1
1
1
1
1
1
1
1
1
1
1
1
1
1
1
1
1
1
1
1
1
1
1
1
1
1
1
1
1
1
1
1
1
1
1
1
1
1
1
1
1
1
1
1
1
1
1
1
1
1
1
1
1
1
1
1
1
1
1
1
1
1
1
1
1
1
1
1
1
1
1
1
1
1
1
1
1
1
1
1
1
1
1
1
1
1
1
1
1
1
1
1
1
1
1
1
1
1
1
1
1
1
1
1
1
1
1
1
1
1
1
1
1
1
1
1
1
1
1
2.8591
9.84862
11.2472
11.2534
11.3163
11.3645
11.4116
11.455
11.4885
11.5227
11.5557
11.5872
11.6161
11.6422
11.6641
11.6815
11.694
11.703
11.7082
11.7064
11.6934
11.6693
11.6414
11.6352
11.6771
11.7514
11.8276
11.8875
11.9342
11.9807
12.0224
12.0426
12.034
12.0076
11.9791
11.9505
11.9019
11.8437
11.8426
11.8763
11.9266
12.0226
12.1341
12.2167
12.235
12.1972
12.1193
12.0317
11.9572
11.9313
11.9739
12.028
12.0777
12.1003
12.0974
12.0936
12.1557
12.2235
12.2345
12.1482
12.0465
11.9907
12.0042
1
1
1
1
1
1
1
1
1
1
1
1
1
1
1
1
1
1
1
1
1
1
1
1
1
1
1
1
1
1
1
1
1
1
1
1
1
1
1
1
1
1
1
1
1
1
1
1
1
1
1
1
1
1
1
1
1
1
1
1
1
1
1
1
1
1
1
1
1
1
1
1
1
1
1
1
1
1
1
1
1
1
1
1
1
1
1
1
1
1
1
1
1
1
1
1
1
1
1
1
1
1
1
1
1
1
1
1
1
1
1
1
1
1
1
1
1
1
1
1
1
1
1
1
1
1
1
1
1
2.07242
9.13674
11.3707
11.2926
11.3445
11.3858
11.4213
11.4513
11.4812
11.5122
11.5412
11.5682
11.5935
11.6164
11.6362
11.6509
11.6611
11.6659
11.6644
11.6557
11.6398
11.62
11.6101
11.6361
11.7015
11.7804
11.8469
11.8938
11.9278
11.9634
11.9955
12.01
11.9983
11.9664
11.9236
11.8732
11.8327
11.8215
11.8582
11.8952
11.9347
12.0148
12.1177
12.1999
12.2194
12.1741
12.0776
11.9629
11.8744
11.8691
11.9491
12.0326
12.0888
12.1151
12.1026
12.0789
12.1116
12.1507
12.1531
12.0845
12.0167
11.9873
12.0197
1
1
1
1
1
1
1
1
1
1
1
1
1
1
1
1
1
1
1
1
1
1
1
1
1
1
1
1
1
1
1
1
1
1
1
1
1
1
1
1
1
1
1
1
1
1
1
1
1
1
1
1
1
1
1
1
1
1
1
1
1
1
1
1
1
1
1
1
1
1
1
1
1
1
1
1
1
1
1
1
1
1
1
1
1
1
1
1
1
1
1
1
1
1
1
1
1
1
1
1
1
1
1
1
1
1
1
1
1
1
1
1
1
1
1
1
1
1
1
1
1
1
1
1
1
1
1
1
1
1.39092
8.00797
11.403
11.3336
11.3608
11.3858