/*--------------------------------*- C++ -*----------------------------------*\
  =========                 |
  \\      /  F ield         | OpenFOAM: The Open Source CFD Toolbox
   \\    /   O peration     | Website:  https://openfoam.org
    \\  /    A nd           | Version:  7
     \\/     M anipulation  |
\*---------------------------------------------------------------------------*/
FoamFile
{
    version     2.0;
    format      ascii;
    class       volScalarField;
    location    "0.4";
    object      rho;
}
// * * * * * * * * * * * * * * * * * * * * * * * * * * * * * * * * * * * * * //

dimensions      [1 -3 0 0 0 0 0];

internalField   nonuniform List<scalar> 
258048
(
1.40001
1.40001
1.40001
1.40001
1.40001
1.40001
1.40001
1.40001
1.40001
1.40001
1.40001
1.40001
1.40001
1.40001
1.40001
1.40001
1.40001
1.40001
1.40001
1.40001
1.40001
1.40001
1.40001
1.40001
1.40001
1.40001
1.40001
1.40001
1.40001
1.40001
1.40001
1.40001
1.40001
1.40001
1.40001
1.40001
1.40001
1.40001
1.40001
1.40001
1.40001
1.40001
1.40001
1.40001
1.40001
1.40001
1.40001
1.40001
1.40001
1.40001
1.40001
1.40001
1.40001
1.40001
1.40001
1.40001
1.40001
1.40001
1.40001
1.40001
1.40001
1.40001
1.40001
1.40001
1.40001
1.40001
1.40001
1.40001
1.40001
1.40001
1.40001
1.40001
1.40001
1.40001
1.40001
1.40001
1.40001
1.40001
1.40001
1.40001
1.40001
1.40001
1.40001
1.40001
1.40001
1.40001
1.40001
1.40001
1.40001
1.40001
1.40001
1.40001
1.40001
1.40001
1.40001
1.40001
1.40001
1.40001
1.40001
1.40001
1.40001
1.40001
1.40001
1.40001
1.40001
1.40001
1.40001
1.40001
1.40001
1.40001
1.40001
1.40001
1.40001
1.40001
1.40001
1.40001
1.40001
1.40001
1.40001
1.40001
1.40001
1.40001
1.40001
1.40001
1.40001
1.40001
1.40001
3.78302
5.55489
5.62051
5.65228
5.66612
5.66186
5.65523
5.64285
5.61939
5.59096
5.57286
5.57351
5.59583
5.6263
5.65823
5.68475
5.70611
5.71738
5.71896
5.71446
5.70356
5.68309
5.65197
5.61768
5.59482
5.59144
5.60692
5.63014
5.65324
5.66917
5.67575
5.6695
5.65385
5.62754
5.58733
5.53573
5.48795
5.46037
5.45761
5.46557
5.48049
5.48446
5.46128
5.40431
5.31836
5.21466
5.11288
5.03205
4.99223
4.98197
4.9871
4.99526
5.00707
5.01696
5.04002
5.05156
5.03641
5.00014
4.96113
4.94369
4.92886
4.93413
4.93882
4.96804
4.99619
1.40001
1.40001
1.40001
1.40001
1.40001
1.40001
1.40001
1.40001
1.40001
1.40001
1.40001
1.40001
1.40001
1.40001
1.40001
1.40001
1.40001
1.40001
1.40001
1.40001
1.40001
1.40001
1.40001
1.40001
1.40001
1.40001
1.40001
1.40001
1.40001
1.40001
1.40001
1.40001
1.40001
1.40001
1.40001
1.40001
1.40001
1.40001
1.40001
1.40001
1.40001
1.40001
1.40001
1.40001
1.40001
1.40001
1.40001
1.40001
1.40001
1.40001
1.40001
1.40001
1.40001
1.40001
1.40001
1.40001
1.40001
1.40001
1.40001
1.40001
1.40001
1.40001
1.40001
1.40001
1.40001
1.40001
1.40001
1.40001
1.40001
1.40001
1.40001
1.40001
1.40001
1.40001
1.40001
1.40001
1.40001
1.40001
1.40001
1.40001
1.40001
1.40001
1.40001
1.40001
1.40001
1.40001
1.40001
1.40001
1.40001
1.40001
1.40001
1.40001
1.40001
1.40001
1.40001
1.40001
1.40001
1.40001
1.40001
1.40001
1.40001
1.40001
1.40001
1.40001
1.40001
1.40001
1.40001
1.40001
1.40001
1.40001
1.40001
1.40001
1.40001
1.40001
1.40001
1.40001
1.40001
1.40001
1.40001
1.40001
1.40001
1.40001
1.40001
1.40001
1.40001
1.40001
1.40001
3.77103
5.54714
5.6238
5.65246
5.6663
5.6616
5.65432
5.64132
5.61759
5.58966
5.57242
5.57397
5.59682
5.62745
5.65898
5.68542
5.70653
5.71751
5.71885
5.71416
5.703
5.68223
5.65099
5.61688
5.59445
5.59161
5.60745
5.63079
5.65379
5.66946
5.67573
5.66929
5.65344
5.62688
5.58646
5.5349
5.4875
5.46042
5.45782
5.46589
5.48064
5.4843
5.46085
5.40362
5.31726
5.21325
5.11124
5.03048
4.99153
4.98236
4.98726
4.99581
5.00739
5.01698
5.03977
5.05101
5.03569
4.99958
4.96087
4.94376
4.92896
4.93431
4.93865
4.96774
4.99572
1.40001
1.40001
1.40001
1.40001
1.40001
1.40001
1.40001
1.40001
1.40001
1.40001
1.40001
1.40001
1.40001
1.40001
1.40001
1.40001
1.40001
1.40001
1.40001
1.40001
1.40001
1.40001
1.40001
1.40001
1.40001
1.40001
1.40001
1.40001
1.40001
1.40001
1.40001
1.40001
1.40001
1.40001
1.40001
1.40001
1.40001
1.40001
1.40001
1.40001
1.40001
1.40001
1.40001
1.40001
1.40001
1.40001
1.40001
1.40001
1.40001
1.40001
1.40001
1.40001
1.40001
1.40001
1.40001
1.40001
1.40001
1.40001
1.40001
1.40001
1.40001
1.40001
1.40001
1.40001
1.40001
1.40001
1.40001
1.40001
1.40001
1.40001
1.40001
1.40001
1.40001
1.40001
1.40001
1.40001
1.40001
1.40001
1.40001
1.40001
1.40001
1.40001
1.40001
1.40001
1.40001
1.40001
1.40001
1.40001
1.40001
1.40001
1.40001
1.40001
1.40001
1.40001
1.40001
1.40001
1.40001
1.40001
1.40001
1.40001
1.40001
1.40001
1.40001
1.40001
1.40001
1.40001
1.40001
1.40001
1.40001
1.40001
1.40001
1.40001
1.40001
1.40001
1.40001
1.40001
1.40001
1.40001
1.40001
1.40001
1.40001
1.40001
1.40001
1.40001
1.40001
1.40001
1.40001
3.74737
5.5409
5.62383
5.652
5.66544
5.66063
5.65276
5.63894
5.61475
5.58756
5.57158
5.57456
5.59825
5.62917
5.66006
5.68631
5.70695
5.71749
5.71852
5.71358
5.70202
5.68077
5.6493
5.61551
5.59377
5.5917
5.60822
5.63175
5.65456
5.66984
5.67561
5.66883
5.65259
5.6256
5.58488
5.53342
5.48657
5.46027
5.4579
5.46604
5.48045
5.48368
5.45968
5.40185
5.31465
5.21002
5.10782
5.02746
4.99025
4.98263
4.98736
4.99641
5.00787
5.0168
5.0393
5.05018
5.03463
4.99871
4.96044
4.94376
4.92901
4.93446
4.93829
4.96726
4.99507
1.40001
1.40001
1.40001
1.40001
1.40001
1.40001
1.40001
1.40001
1.40001
1.40001
1.40001
1.40001
1.40001
1.40001
1.40001
1.40001
1.40001
1.40001
1.40001
1.40001
1.40001
1.40001
1.40001
1.40001
1.40001
1.40001
1.40001
1.40001
1.40001
1.40001
1.40001
1.40001
1.40001
1.40001
1.40001
1.40001
1.40001
1.40001
1.40001
1.40001
1.40001
1.40001
1.40001
1.40001
1.40001
1.40001
1.40001
1.40001
1.40001
1.40001
1.40001
1.40001
1.40001
1.40001
1.40001
1.40001
1.40001
1.40001
1.40001
1.40001
1.40001
1.40001
1.40001
1.40001
1.40001
1.40001
1.40001
1.40001
1.40001
1.40001
1.40001
1.40001
1.40001
1.40001
1.40001
1.40001
1.40001
1.40001
1.40001
1.40001
1.40001
1.40001
1.40001
1.40001
1.40001
1.40001
1.40001
1.40001
1.40001
1.40001
1.40001
1.40001
1.40001
1.40001
1.40001
1.40001
1.40001
1.40001
1.40001
1.40001
1.40001
1.40001
1.40001
1.40001
1.40001
1.40001
1.40001
1.40001
1.40001
1.40001
1.40001
1.40001
1.40001
1.40001
1.40001
1.40001
1.40001
1.40001
1.40001
1.40001
1.40001
1.40001
1.40001
1.40001
1.40001
1.40001
1.40001
3.71205
5.53561
5.62467
5.65151
5.66389
5.65856
5.65018
5.63542
5.61071
5.58466
5.57051
5.57562
5.60031
5.63165
5.66182
5.68761
5.70735
5.7172
5.71779
5.7125
5.70042
5.67854
5.64683
5.61359
5.59286
5.59202
5.60956
5.63323
5.65575
5.67049
5.67557
5.66824
5.65135
5.62372
5.58266
5.53152
5.48559
5.4605
5.45851
5.46671
5.48073
5.48356
5.4588
5.40008
5.31184
5.20636
5.10375
5.02399
4.9891
4.98309
4.98779
4.99725
5.00854
5.01654
5.0385
5.04878
5.03292
4.99741
4.95992
4.94387
4.9293
4.9347
4.93797
4.96655
4.99406
1.40001
1.40001
1.40001
1.40001
1.40001
1.40001
1.40001
1.40001
1.40001
1.40001
1.40001
1.40001
1.40001
1.40001
1.40001
1.40001
1.40001
1.40001
1.40001
1.40001
1.40001
1.40001
1.40001
1.40001
1.40001
1.40001
1.40001
1.40001
1.40001
1.40001
1.40001
1.40001
1.40001
1.40001
1.40001
1.40001
1.40001
1.40001
1.40001
1.40001
1.40001
1.40001
1.40001
1.40001
1.40001
1.40001
1.40001
1.40001
1.40001
1.40001
1.40001
1.40001
1.40001
1.40001
1.40001
1.40001
1.40001
1.40001
1.40001
1.40001
1.40001
1.40001
1.40001
1.40001
1.40001
1.40001
1.40001
1.40001
1.40001
1.40001
1.40001
1.40001
1.40001
1.40001
1.40001
1.40001
1.40001
1.40001
1.40001
1.40001
1.40001
1.40001
1.40001
1.40001
1.40001
1.40001
1.40001
1.40001
1.40001
1.40001
1.40001
1.40001
1.40001
1.40001
1.40001
1.40001
1.40001
1.40001
1.40001
1.40001
1.40001
1.40001
1.40001
1.40001
1.40001
1.40001
1.40001
1.40001
1.40001
1.40001
1.40001
1.40001
1.40001
1.40001
1.40001
1.40001
1.40001
1.40001
1.40001
1.40001
1.40001
1.40001
1.40001
1.40001
1.40001
1.40001
1.40001
3.66569
5.52964
5.62506
5.65048
5.66159
5.65548
5.64671
5.63087
5.60558
5.58113
5.56937
5.57735
5.60301
5.63489
5.66454
5.68956
5.708
5.71677
5.71672
5.71095
5.69826
5.67563
5.64365
5.61123
5.59183
5.5929
5.61162
5.63529
5.65743
5.67152
5.67575
5.66769
5.64985
5.62136
5.57988
5.5293
5.48467
5.46119
5.45971
5.46792
5.4815
5.48386
5.45851
5.39877
5.30929
5.20272
5.09966
5.02084
4.98845
4.98376
4.98872
4.99845
5.00926
5.01633
5.0375
5.04689
5.03063
4.99579
4.95941
4.94416
4.92987
4.93508
4.93764
4.96555
4.99261
1.40001
1.40001
1.40001
1.40001
1.40001
1.40001
1.40001
1.40001
1.40001
1.40001
1.40001
1.40001
1.40001
1.40001
1.40001
1.40001
1.40001
1.40001
1.40001
1.40001
1.40001
1.40001
1.40001
1.40001
1.40001
1.40001
1.40001
1.40001
1.40001
1.40001
1.40001
1.40001
1.40001
1.40001
1.40001
1.40001
1.40001
1.40001
1.40001
1.40001
1.40001
1.40001
1.40001
1.40001
1.40001
1.40001
1.40001
1.40001
1.40001
1.40001
1.40001
1.40001
1.40001
1.40001
1.40001
1.40001
1.40001
1.40001
1.40001
1.40001
1.40001
1.40001
1.40001
1.40001
1.40001
1.40001
1.40001
1.40001
1.40001
1.40001
1.40001
1.40001
1.40001
1.40001
1.40001
1.40001
1.40001
1.40001
1.40001
1.40001
1.40001
1.40001
1.40001
1.40001
1.40001
1.40001
1.40001
1.40001
1.40001
1.40001
1.40001
1.40001
1.40001
1.40001
1.40001
1.40001
1.40001
1.40001
1.40001
1.40001
1.40001
1.40001
1.40001
1.40001
1.40001
1.40001
1.40001
1.40001
1.40001
1.40001
1.40001
1.40001
1.40001
1.40001
1.40001
1.40001
1.40001
1.40001
1.40001
1.40001
1.40001
1.40001
1.40001
1.40001
1.40001
1.40001
1.40001
3.60783
5.52259
5.62522
5.64908
5.65889
5.65165
5.64227
5.62501
5.59939
5.57734
5.56863
5.57987
5.60655
5.63884
5.66795
5.69203
5.70887
5.71614
5.71518
5.70875
5.69535
5.67191
5.63975
5.60848
5.59085
5.59449
5.61425
5.63782
5.65949
5.67289
5.6761
5.66711
5.64802
5.61844
5.57646
5.52671
5.48378
5.46243
5.46153
5.46968
5.48277
5.48456
5.45869
5.39791
5.30697
5.19915
5.09578
5.01816
4.98828
4.98475
4.99034
5.00015
5.01004
5.01617
5.03628
5.04436
5.0276
4.99378
4.95891
4.9447
4.93073
4.93565
4.93724
4.96421
4.99059
1.40001
1.40001
1.40001
1.40001
1.40001
1.40001
1.40001
1.40001
1.40001
1.40001
1.40001
1.40001
1.40001
1.40001
1.40001
1.40001
1.40001
1.40001
1.40001
1.40001
1.40001
1.40001
1.40001
1.40001
1.40001
1.40001
1.40001
1.40001
1.40001
1.40001
1.40001
1.40001
1.40001
1.40001
1.40001
1.40001
1.40001
1.40001
1.40001
1.40001
1.40001
1.40001
1.40001
1.40001
1.40001
1.40001
1.40001
1.40001
1.40001
1.40001
1.40001
1.40001
1.40001
1.40001
1.40001
1.40001
1.40001
1.40001
1.40001
1.40001
1.40001
1.40001
1.40001
1.40001
1.40001
1.40001
1.40001
1.40001
1.40001
1.40001
1.40001
1.40001
1.40001
1.40001
1.40001
1.40001
1.40001
1.40001
1.40001
1.40001
1.40001
1.40001
1.40001
1.40001
1.40001
1.40001
1.40001
1.40001
1.40001
1.40001
1.40001
1.40001
1.40001
1.40001
1.40001
1.40001
1.40001
1.40001
1.40001
1.40001
1.40001
1.40001
1.40001
1.40001
1.40001
1.40001
1.40001
1.40001
1.40001
1.40001
1.40001
1.40001
1.40001
1.40001
1.40001
1.40001
1.40001
1.40001
1.40001
1.40001
1.40001
1.40001
1.40001
1.40001
1.40001
1.40001
1.40001
3.53851
5.51445
5.62512
5.64684
5.65562
5.64715
5.63697
5.61797
5.59246
5.57348
5.56828
5.58308
5.61093
5.64353
5.67191
5.69483
5.70975
5.71516
5.71312
5.70586
5.69158
5.66727
5.63506
5.60539
5.59014
5.59688
5.61745
5.64077
5.66186
5.6745
5.6765
5.66637
5.64574
5.61486
5.57234
5.52366
5.48288
5.46431
5.46397
5.47194
5.4846
5.48595
5.45971
5.3979
5.30538
5.19614
5.09244
5.0159
4.9884
4.98616
4.99251
5.00224
5.0109
5.01595
5.03465
5.04104
5.02377
4.99143
4.95855
4.9455
4.93197
4.93645
4.93687
4.96256
4.98796
1.40001
1.40001
1.40001
1.40001
1.40001
1.40001
1.40001
1.40001
1.40001
1.40001
1.40001
1.40001
1.40001
1.40001
1.40001
1.40001
1.40001
1.40001
1.40001
1.40001
1.40001
1.40001
1.40001
1.40001
1.40001
1.40001
1.40001
1.40001
1.40001
1.40001
1.40001
1.40001
1.40001
1.40001
1.40001
1.40001
1.40001
1.40001
1.40001
1.40001
1.40001
1.40001
1.40001
1.40001
1.40001
1.40001
1.40001
1.40001
1.40001
1.40001
1.40001
1.40001
1.40001
1.40001
1.40001
1.40001
1.40001
1.40001
1.40001
1.40001
1.40001
1.40001
1.40001
1.40001
1.40001
1.40001
1.40001
1.40001
1.40001
1.40001
1.40001
1.40001
1.40001
1.40001
1.40001
1.40001
1.40001
1.40001
1.40001
1.40001
1.40001
1.40001
1.40001
1.40001
1.40001
1.40001
1.40001
1.40001
1.40001
1.40001
1.40001
1.40001
1.40001
1.40001
1.40001
1.40001
1.40001
1.40001
1.40001
1.40001
1.40001
1.40001
1.40001
1.40001
1.40001
1.40001
1.40001
1.40001
1.40001
1.40001
1.40001
1.40001
1.40001
1.40001
1.40001
1.40001
1.40001
1.40001
1.40001
1.40001
1.40001
1.40001
1.40001
1.40001
1.40001
1.40001
1.40001
3.45796
5.50478
5.62479
5.64361
5.65183
5.64209
5.6306
5.60946
5.58492
5.56962
5.56847
5.58719
5.61645
5.649
5.67636
5.69777
5.71038
5.71366
5.71049
5.70227
5.68694
5.66171
5.62962
5.6021
5.58992
5.60002
5.62134
5.64413
5.6644
5.67622
5.67684
5.66533
5.6429
5.61055
5.56749
5.52017
5.48206
5.46693
5.46697
5.47463
5.48681
5.48781
5.46147
5.39875
5.30457
5.19357
5.08935
5.01411
4.98901
4.98805
4.9953
5.00476
5.01195
5.01577
5.03262
5.03687
5.01915
4.98881
4.95835
4.94658
4.93366
4.9375
4.93654
4.96054
4.98465
1.40001
1.40001
1.40001
1.40001
1.40001
1.40001
1.40001
1.40001
1.40001
1.40001
1.40001
1.40001
1.40001
1.40001
1.40001
1.40001
1.40001
1.40001
1.40001
1.40001
1.40001
1.40001
1.40001
1.40001
1.40001
1.40001
1.40001
1.40001
1.40001
1.40001
1.40001
1.40001
1.40001
1.40001
1.40001
1.40001
1.40001
1.40001
1.40001
1.40001
1.40001
1.40001
1.40001
1.40001
1.40001
1.40001
1.40001
1.40001
1.40001
1.40001
1.40001
1.40001
1.40001
1.40001
1.40001
1.40001
1.40001
1.40001
1.40001
1.40001
1.40001
1.40001
1.40001
1.40001
1.40001
1.40001
1.40001
1.40001
1.40001
1.40001
1.40001
1.40001
1.40001
1.40001
1.40001
1.40001
1.40001
1.40001
1.40001
1.40001
1.40001
1.40001
1.40001
1.40001
1.40001
1.40001
1.40001
1.40001
1.40001
1.40001
1.40001
1.40001
1.40001
1.40001
1.40001
1.40001
1.40001
1.40001
1.40001
1.40001
1.40001
1.40001
1.40001
1.40001
1.40001
1.40001
1.40001
1.40001
1.40001
1.40001
1.40001
1.40001
1.40001
1.40001
1.40001
1.40001
1.40001
1.40001
1.40001
1.40001
1.40001
1.40001
1.40001
1.40001
1.40001
1.40001
1.40001
3.3666
5.49272
5.62407
5.63928
5.6475
5.63638
5.62268
5.59923
5.57712
5.56613
5.56995
5.59239
5.62327
5.65512
5.68115
5.70052
5.71052
5.71158
5.70726
5.69803
5.68149
5.65525
5.62349
5.5987
5.59039
5.60394
5.62588
5.64782
5.66697
5.67788
5.677
5.66379
5.63937
5.60537
5.56187
5.51636
5.48148
5.47022
5.47052
5.47759
5.4891
5.48984
5.46353
5.40013
5.3043
5.19137
5.08651
5.01277
4.99006
4.99039
4.99861
5.00764
5.0132
5.01556
5.0301
5.03181
5.01373
4.98594
4.95836
4.94789
4.93581
4.93882
4.93623
4.95814
4.98058
1.40001
1.40001
1.40001
1.40001
1.40001
1.40001
1.40001
1.40001
1.40001
1.40001
1.40001
1.40001
1.40001
1.40001
1.40001
1.40001
1.40001
1.40001
1.40001
1.40001
1.40001
1.40001
1.40001
1.40001
1.40001
1.40001
1.40001
1.40001
1.40001
1.40001
1.40001
1.40001
1.40001
1.40001
1.40001
1.40001
1.40001
1.40001
1.40001
1.40001
1.40001
1.40001
1.40001
1.40001
1.40001
1.40001
1.40001
1.40001
1.40001
1.40001
1.40001
1.40001
1.40001
1.40001
1.40001
1.40001
1.40001
1.40001
1.40001
1.40001
1.40001
1.40001
1.40001
1.40001
1.40001
1.40001
1.40001
1.40001
1.40001
1.40001
1.40001
1.40001
1.40001
1.40001
1.40001
1.40001
1.40001
1.40001
1.40001
1.40001
1.40001
1.40001
1.40001
1.40001
1.40001
1.40001
1.40001
1.40001
1.40001
1.40001
1.40001
1.40001
1.40001
1.40001
1.40001
1.40001
1.40001
1.40001
1.40001
1.40001
1.40001
1.40001
1.40001
1.40001
1.40001
1.40001
1.40001
1.40001
1.40001
1.40001
1.40001
1.40001
1.40001
1.40001
1.40001
1.40001
1.40001
1.40001
1.40001
1.40001
1.40001
1.40001
1.40001
1.40001
1.40001
1.40001
1.40001
3.26505
5.47687
5.62248
5.63395
5.64263
5.62973
5.6124
5.58738
5.56959
5.56363
5.57373
5.59909
5.63133
5.66178
5.68608
5.70273
5.70988
5.7089
5.70341
5.69321
5.67527
5.64796
5.61687
5.59524
5.59193
5.60867
5.6309
5.65178
5.66957
5.67927
5.6768
5.66174
5.63509
5.59924
5.55551
5.51248
5.48138
5.474
5.47463
5.48073
5.49136
5.49183
5.4656
5.40167
5.30425
5.18933
5.08381
5.01186
4.9915
4.99318
5.00239
5.01082
5.01459
5.01529
5.02703
5.0259
5.00762
4.98289
4.95851
4.94951
4.93842
4.94042
4.93596
4.95536
4.97574
1.40001
1.40001
1.40001
1.40001
1.40001
1.40001
1.40001
1.40001
1.40001
1.40001
1.40001
1.40001
1.40001
1.40001
1.40001
1.40001
1.40001
1.40001
1.40001
1.40001
1.40001
1.40001
1.40001
1.40001
1.40001
1.40001
1.40001
1.40001
1.40001
1.40001
1.40001
1.40001
1.40001
1.40001
1.40001
1.40001
1.40001
1.40001
1.40001
1.40001
1.40001
1.40001
1.40001
1.40001
1.40001
1.40001
1.40001
1.40001
1.40001
1.40001
1.40001
1.40001
1.40001
1.40001
1.40001
1.40001
1.40001
1.40001
1.40001
1.40001
1.40001
1.40001
1.40001
1.40001
1.40001
1.40001
1.40001
1.40001
1.40001
1.40001
1.40001
1.40001
1.40001
1.40001
1.40001
1.40001
1.40001
1.40001
1.40001
1.40001
1.40001
1.40001
1.40001
1.40001
1.40001
1.40001
1.40001
1.40001
1.40001
1.40001
1.40001
1.40001
1.40001
1.40001
1.40001
1.40001
1.40001
1.40001
1.40001
1.40001
1.40001
1.40001
1.40001
1.40001
1.40001
1.40001
1.40001
1.40001
1.40001
1.40001
1.40001
1.40001
1.40001
1.40001
1.40001
1.40001
1.40001
1.40001
1.40001
1.40001
1.40001
1.40001
1.40001
1.40001
1.40001
1.40001
1.40001
3.15397
5.45567
5.61968
5.62809
5.63706
5.62123
5.5989
5.57506
5.56314
5.56291
5.58004
5.60786
5.64032
5.66873
5.69079
5.70418
5.70817
5.70553
5.69905
5.68785
5.66833
5.63988
5.61014
5.59191
5.59472
5.61423
5.63626
5.65593
5.67206
5.68027
5.67616
5.65911
5.63001
5.59216
5.54846
5.5088
5.48191
5.47821
5.47922
5.48402
5.49352
5.4937
5.46746
5.40301
5.30402
5.18708
5.0811
5.01145
4.99343
4.99642
5.00652
5.01426
5.01608
5.01488
5.02326
5.0191
5.00103
4.9797
4.95874
4.95142
4.94145
4.94225
4.93569
4.95219
4.97006
1.40001
1.40001
1.40001
1.40001
1.40001
1.40001
1.40001
1.40001
1.40001
1.40001
1.40001
1.40001
1.40001
1.40001
1.40001
1.40001
1.40001
1.40001
1.40001
1.40001
1.40001
1.40001
1.40001
1.40001
1.40001
1.40001
1.40001
1.40001
1.40001
1.40001
1.40001
1.40001
1.40001
1.40001
1.40001
1.40001
1.40001
1.40001
1.40001
1.40001
1.40001
1.40001
1.40001
1.40001
1.40001
1.40001
1.40001
1.40001
1.40001
1.40001
1.40001
1.40001
1.40001
1.40001
1.40001
1.40001
1.40001
1.40001
1.40001
1.40001
1.40001
1.40001
1.40001
1.40001
1.40001
1.40001
1.40001
1.40001
1.40001
1.40001
1.40001
1.40001
1.40001
1.40001
1.40001
1.40001
1.40001
1.40001
1.40001
1.40001
1.40001
1.40001
1.40001
1.40001
1.40001
1.40001
1.40001
1.40001
1.40001
1.40001
1.40001
1.40001
1.40001
1.40001
1.40001
1.40001
1.40001
1.40001
1.40001
1.40001
1.40001
1.40001
1.40001
1.40001
1.40001
1.40001
1.40001
1.40001
1.40001
1.40001
1.40001
1.40001
1.40001
1.40001
1.40001
1.40001
1.40001
1.40001
1.40001
1.40001
1.40001
1.40001
1.40001
1.40001
1.40001
1.40001
1.40001
3.03357
5.42759
5.61637
5.62256
5.63004
5.60899
5.58259
5.56416
5.55884
5.56567
5.58847
5.61829
5.64963
5.67567
5.6948
5.70459
5.70543
5.70146
5.69423
5.68196
5.66068
5.63105
5.60333
5.58954
5.5989
5.62048
5.64187
5.66013
5.67435
5.68079
5.67504
5.65589
5.62416
5.58416
5.54076
5.50554
5.48363
5.48266
5.4839
5.48751
5.49568
5.49534
5.4689
5.40386
5.30325
5.18436
5.07836
5.01166
4.99593
5.00008
5.01077
5.01785
5.01769
5.01418
5.01874
5.01146
4.99405
4.97642
4.95905
4.95358
4.94487
4.94431
4.93544
4.94865
4.96357
1.40001
1.40001
1.40001
1.40001
1.40001
1.40001
1.40001
1.40001
1.40001
1.40001
1.40001
1.40001
1.40001
1.40001
1.40001
1.40001
1.40001
1.40001
1.40001
1.40001
1.40001
1.40001
1.40001
1.40001
1.40001
1.40001
1.40001
1.40001
1.40001
1.40001
1.40001
1.40001
1.40001
1.40001
1.40001
1.40001
1.40001
1.40001
1.40001
1.40001
1.40001
1.40001
1.40001
1.40001
1.40001
1.40001
1.40001
1.40001
1.40001
1.40001
1.40001
1.40001
1.40001
1.40001
1.40001
1.40001
1.40001
1.40001
1.40001
1.40001
1.40001
1.40001
1.40001
1.40001
1.40001
1.40001
1.40001
1.40001
1.40001
1.40001
1.40001
1.40001
1.40001
1.40001
1.40001
1.40001
1.40001
1.40001
1.40001
1.40001
1.40001
1.40001
1.40001
1.40001
1.40001
1.40001
1.40001
1.40001
1.40001
1.40001
1.40001
1.40001
1.40001
1.40001
1.40001
1.40001
1.40001
1.40001
1.40001
1.40001
1.40001
1.40001
1.40001
1.40001
1.40001
1.40001
1.40001
1.40001
1.40001
1.40001
1.40001
1.40001
1.40001
1.40001
1.40001
1.40001
1.40001
1.40001
1.40001
1.40001
1.40001
1.40001
1.40001
1.40001
1.40001
1.40001
1.40001
2.90327
5.39142
5.6145
5.61744
5.61895
5.59154
5.56647
5.55619
5.55729
5.57269
5.59863
5.62947
5.65876
5.68219
5.69757
5.70356
5.70182
5.69674
5.68901
5.67547
5.65223
5.62163
5.59667
5.58881
5.60431
5.62738
5.64757
5.66425
5.67629
5.68075
5.67337
5.65203
5.61762
5.57538
5.53256
5.50267
5.48655
5.48744
5.48874
5.49115
5.49777
5.49665
5.46983
5.40407
5.30171
5.18107
5.07572
5.01269
4.99904
5.00412
5.01502
5.02133
5.0193
5.01324
5.01351
5.00303
4.98678
4.9731
4.95947
4.95593
4.94858
4.94661
4.93521
4.94471
4.95623
1.40001
1.40001
1.40001
1.40001
1.40001
1.40001
1.40001
1.40001
1.40001
1.40001
1.40001
1.40001
1.40001
1.40001
1.40001
1.40001
1.40001
1.40001
1.40001
1.40001
1.40001
1.40001
1.40001
1.40001
1.40001
1.40001
1.40001
1.40001
1.40001
1.40001
1.40001
1.40001
1.40001
1.40001
1.40001
1.40001
1.40001
1.40001
1.40001
1.40001
1.40001
1.40001
1.40001
1.40001
1.40001
1.40001
1.40001
1.40001
1.40001
1.40001
1.40001
1.40001
1.40001
1.40001
1.40001
1.40001
1.40001
1.40001
1.40001
1.40001
1.40001
1.40001
1.40001
1.40001
1.40001
1.40001
1.40001
1.40001
1.40001
1.40001
1.40001
1.40001
1.40001
1.40001
1.40001
1.40001
1.40001
1.40001
1.40001
1.40001
1.40001
1.40001
1.40001
1.40001
1.40001
1.40001
1.40001
1.40001
1.40001
1.40001
1.40001
1.40001
1.40001
1.40001
1.40001
1.40001
1.40001
1.40001
1.40001
1.40001
1.40001
1.40001
1.40001
1.40001
1.40001
1.40001
1.40001
1.40001
1.40001
1.40001
1.40001
1.40001
1.40001
1.40001
1.40001
1.40001
1.40001
1.40001
1.40001
1.40001
1.40001
1.40001
1.40001
1.40001
1.40001
1.40001
1.40001
2.76323
5.34516
5.61475
5.61125
5.60213
5.57099
5.55391
5.55227
5.56014
5.58237
5.61013
5.64055
5.6673
5.68768
5.6989
5.70083
5.6973
5.69158
5.68334
5.66818
5.64284
5.61212
5.59053
5.59041
5.61093
5.63454
5.65327
5.66811
5.67778
5.68007
5.67106
5.64745
5.61042
5.56602
5.52424
5.50019
5.49045
5.49278
5.49379
5.49481
5.49968
5.49752
5.47016
5.40348
5.29933
5.17739
5.07349
5.01458
5.00268
5.00848
5.01911
5.02462
5.02073
5.01189
5.00761
4.99396
4.97926
4.9698
4.96005
4.95848
4.95254
4.94908
4.93506
4.94037
4.94808
1.40001
1.40001
1.40001
1.40001
1.40001
1.40001
1.40001
1.40001
1.40001
1.40001
1.40001
1.40001
1.40001
1.40001
1.40001
1.40001
1.40001
1.40001
1.40001
1.40001
1.40001
1.40001
1.40001
1.40001
1.40001
1.40001
1.40001
1.40001
1.40001
1.40001
1.40001
1.40001
1.40001
1.40001
1.40001
1.40001
1.40001
1.40001
1.40001
1.40001
1.40001
1.40001
1.40001
1.40001
1.40001
1.40001
1.40001
1.40001
1.40001
1.40001
1.40001
1.40001
1.40001
1.40001
1.40001
1.40001
1.40001
1.40001
1.40001
1.40001
1.40001
1.40001
1.40001
1.40001
1.40001
1.40001
1.40001
1.40001
1.40001
1.40001
1.40001
1.40001
1.40001
1.40001
1.40001
1.40001
1.40001
1.40001
1.40001
1.40001
1.40001
1.40001
1.40001
1.40001
1.40001
1.40001
1.40001
1.40001
1.40001
1.40001
1.40001
1.40001
1.40001
1.40001
1.40001
1.40001
1.40001
1.40001
1.40001
1.40001
1.40001
1.40001
1.40001
1.40001
1.40001
1.40001
1.40001
1.40001
1.40001
1.40001
1.40001
1.40001
1.40001
1.40001
1.40001
1.40001
1.40001
1.40001
1.40001
1.40001
1.40001
1.40001
1.40001
1.40001
1.40001
1.40001
1.40001
2.61371
5.28643
5.61679
5.60122
5.57946
5.55255
5.547
5.55243
5.56844
5.59361
5.62215
5.65088
5.67485
5.69128
5.69836
5.69691
5.69204
5.68605
5.67705
5.65983
5.63231
5.60291
5.58611
5.59452
5.61845
5.64176
5.65886
5.67148
5.67871
5.67878
5.66789
5.64208
5.60256
5.55619
5.51637
5.49843
5.49498
5.49879
5.49897
5.49837
5.5013
5.49785
5.46978
5.40204
5.29626
5.17362
5.072
5.01733
5.00669
5.01311
5.02289
5.02782
5.02204
5.0101
5.00102
4.9843
4.97156
4.96659
4.96086
4.96125
4.95664
4.95164
4.93494
4.93555
4.93918
1.40001
1.40001
1.40001
1.40001
1.40001
1.40001
1.40001
1.40001
1.40001
1.40001
1.40001
1.40001
1.40001
1.40001
1.40001
1.40001
1.40001
1.40001
1.40001
1.40001
1.40001
1.40001
1.40001
1.40001
1.40001
1.40001
1.40001
1.40001
1.40001
1.40001
1.40001
1.40001
1.40001
1.40001
1.40001
1.40001
1.40001
1.40001
1.40001
1.40001
1.40001
1.40001
1.40001
1.40001
1.40001
1.40001
1.40001
1.40001
1.40001
1.40001
1.40001
1.40001
1.40001
1.40001
1.40001
1.40001
1.40001
1.40001
1.40001
1.40001
1.40001
1.40001
1.40001
1.40001
1.40001
1.40001
1.40001
1.40001
1.40001
1.40001
1.40001
1.40001
1.40001
1.40001
1.40001
1.40001
1.40001
1.40001
1.40001
1.40001
1.40001
1.40001
1.40001
1.40001
1.40001
1.40001
1.40001
1.40001
1.40001
1.40001
1.40001
1.40001
1.40001
1.40001
1.40001
1.40001
1.40001
1.40001
1.40001
1.40001
1.40001
1.40001
1.40001
1.40001
1.40001
1.40001
1.40001
1.40001
1.40001
1.40001
1.40001
1.40001
1.40001
1.40001
1.40001
1.40001
1.40001
1.40001
1.40001
1.40001
1.40001
1.40001
1.40001
1.40001
1.40001
1.40001
1.40001
2.45496
5.2131
5.6191
5.58479
5.55451
5.54007
5.54526
5.55803
5.58017
5.60607
5.63392
5.66
5.68066
5.69273
5.69553
5.69201
5.68644
5.68016
5.66981
5.65012
5.62083
5.5942
5.58466
5.6007
5.6267
5.64893
5.66421
5.6742
5.67891
5.67679
5.66376
5.63581
5.59397
5.546
5.5096
5.49771
5.5
5.50534
5.50422
5.50173
5.50247
5.4975
5.4686
5.39978
5.29268
5.17011
5.07151
5.02087
5.01107
5.01762
5.02656
5.03093
5.02324
5.00786
4.99365
4.97409
4.96371
4.96334
4.96189
4.96434
4.96088
4.95409
4.93489
4.93044
4.92956
1.40001
1.40001
1.40001
1.40001
1.40001
1.40001
1.40001
1.40001
1.40001
1.40001
1.40001
1.40001
1.40001
1.40001
1.40001
1.40001
1.40001
1.40001
1.40001
1.40001
1.40001
1.40001
1.40001
1.40001
1.40001
1.40001
1.40001
1.40001
1.40001
1.40001
1.40001
1.40001
1.40001
1.40001
1.40001
1.40001
1.40001
1.40001
1.40001
1.40001
1.40001
1.40001
1.40001
1.40001
1.40001
1.40001
1.40001
1.40001
1.40001
1.40001
1.40001
1.40001
1.40001
1.40001
1.40001
1.40001
1.40001
1.40001
1.40001
1.40001
1.40001
1.40001
1.40001
1.40001
1.40001
1.40001
1.40001
1.40001
1.40001
1.40001
1.40001
1.40001
1.40001
1.40001
1.40001
1.40001
1.40001
1.40001
1.40001
1.40001
1.40001
1.40001
1.40001
1.40001
1.40001
1.40001
1.40001
1.40001
1.40001
1.40001
1.40001
1.40001
1.40001
1.40001
1.40001
1.40001
1.40001
1.40001
1.40001
1.40001
1.40001
1.40001
1.40001
1.40001
1.40001
1.40001
1.40001
1.40001
1.40001
1.40001
1.40001
1.40001
1.40001
1.40001
1.40001
1.40001
1.40001
1.40001
1.40001
1.40001
1.40001
1.40001
1.40001
1.40001
1.40001
1.40001
1.40001
2.29157
5.12368
5.61253
5.56015
5.53373
5.53558
5.54855
5.56891
5.59388
5.61903
5.64471
5.66741
5.68376
5.6917
5.69104
5.6863
5.68055
5.67366
5.66123
5.63883
5.60929
5.58676
5.58688
5.60873
5.6353
5.65587
5.66908
5.67615
5.67821
5.67385
5.65861
5.62856
5.58459
5.53571
5.50414
5.49868
5.50585
5.51195
5.50942
5.50485
5.50311
5.49637
5.46653
5.39666
5.28874
5.16725
5.07233
5.02514
5.01581
5.02187
5.03036
5.03381
5.02425
5.00522
4.98547
4.96331
4.95575
4.96026
4.96316
4.96767
4.96518
4.95635
4.9348
4.92511
4.91927
1.40001
1.40001
1.40001
1.40001
1.40001
1.40001
1.40001
1.40001
1.40001
1.40001
1.40001
1.40001
1.40001
1.40001
1.40001
1.40001
1.40001
1.40001
1.40001
1.40001
1.40001
1.40001
1.40001
1.40001
1.40001
1.40001
1.40001
1.40001
1.40001
1.40001
1.40001
1.40001
1.40001
1.40001
1.40001
1.40001
1.40001
1.40001
1.40001
1.40001
1.40001
1.40001
1.40001
1.40001
1.40001
1.40001
1.40001
1.40001
1.40001
1.40001
1.40001
1.40001
1.40001
1.40001
1.40001
1.40001
1.40001
1.40001
1.40001
1.40001
1.40001
1.40001
1.40001
1.40001
1.40001
1.40001
1.40001
1.40001
1.40001
1.40001
1.40001
1.40001
1.40001
1.40001
1.40001
1.40001
1.40001
1.40001
1.40001
1.40001
1.40001
1.40001
1.40001
1.40001
1.40001
1.40001
1.40001
1.40001
1.40001
1.40001
1.40001
1.40001
1.40001
1.40001
1.40001
1.40001
1.40001
1.40001
1.40001
1.40001
1.40001
1.40001
1.40001
1.40001
1.40001
1.40001
1.40001
1.40001
1.40001
1.40001
1.40001
1.40001
1.40001
1.40001
1.40001
1.40001
1.40001
1.40001
1.40001
1.40001
1.40001
1.40001
1.40001
1.40001
1.40001
1.40001
1.40001
2.12288
5.00969
5.59617
5.53285
5.52502
5.53647
5.55727
5.58381
5.60858
5.63149
5.65368
5.67212
5.684
5.68798
5.68535
5.68004
5.67422
5.66622
5.65104
5.62603
5.59846
5.5824
5.59268
5.61819
5.64382
5.66236
5.67313
5.6772
5.67657
5.66973
5.65236
5.62021
5.57439
5.52593
5.50034
5.50135
5.51251
5.51855
5.51453
5.50765
5.50327
5.49444
5.46339
5.39259
5.28458
5.1654
5.07473
5.03016
5.02092
5.02604
5.0341
5.03645
5.02497
5.00213
4.9765
4.95191
4.9477
4.95753
4.96466
4.97118
4.96948
4.95839
4.93466
4.91958
4.90838
1.40001
1.40001
1.40001
1.40001
1.40001
1.40001
1.40001
1.40001
1.40001
1.40001
1.40001
1.40001
1.40001
1.40001
1.40001
1.40001
1.40001
1.40001
1.40001
1.40001
1.40001
1.40001
1.40001
1.40001
1.40001
1.40001
1.40001
1.40001
1.40001
1.40001
1.40001
1.40001
1.40001
1.40001
1.40001
1.40001
1.40001
1.40001
1.40001
1.40001
1.40001
1.40001
1.40001
1.40001
1.40001
1.40001
1.40001
1.40001
1.40001
1.40001
1.40001
1.40001
1.40001
1.40001
1.40001
1.40001
1.40001
1.40001
1.40001
1.40001
1.40001
1.40001
1.40001
1.40001
1.40001
1.40001
1.40001
1.40001
1.40001
1.40001
1.40001
1.40001
1.40001
1.40001
1.40001
1.40001
1.40001
1.40001
1.40001
1.40001
1.40001
1.40001
1.40001
1.40001
1.40001
1.40001
1.40001
1.40001
1.40001
1.40001
1.40001
1.40001
1.40001
1.40001
1.40001
1.40001
1.40001
1.40001
1.40001
1.40001
1.40001
1.40001
1.40001
1.40001
1.40001
1.40001
1.40001
1.40001
1.40001
1.40001
1.40001
1.40001
1.40001
1.40001
1.40001
1.40001
1.40001
1.40001
1.40001
1.40001
1.40001
1.40001
1.40001
1.40001
1.40001
1.40001
1.40001
1.94723
4.86379
5.57486
5.51306
5.52176
5.54303
5.5727
5.60048
5.62273
5.64185
5.65951
5.6737
5.68174
5.68246
5.67864
5.67321
5.66726
5.65745
5.63907
5.61242
5.58895
5.58313
5.60129
5.6284
5.65196
5.6681
5.6762
5.67715
5.67378
5.6644
5.645
5.61076
5.56341
5.51703
5.49876
5.50562
5.51952
5.52513
5.51956
5.51013
5.50286
5.49157
5.45901
5.38741
5.28029
5.16483
5.0789
5.03593
5.02638
5.03014
5.03759
5.0389
5.02532
4.99854
4.96696
4.93996
4.93947
4.95516
4.96632
4.97488
4.97362
4.96023
4.93448
4.9138
4.89692
1.40001
1.40001
1.40001
1.40001
1.40001
1.40001
1.40001
1.40001
1.40001
1.40001
1.40001
1.40001
1.40001
1.40001
1.40001
1.40001
1.40001
1.40001
1.40001
1.40001
1.40001
1.40001
1.40001
1.40001
1.40001
1.40001
1.40001
1.40001
1.40001
1.40001
1.40001
1.40001