/*--------------------------------*- C++ -*----------------------------------*\
  =========                 |
  \\      /  F ield         | OpenFOAM: The Open Source CFD Toolbox
   \\    /   O peration     | Website:  https://openfoam.org
    \\  /    A nd           | Version:  7
     \\/     M anipulation  |
\*---------------------------------------------------------------------------*/
FoamFile
{
    version     2.0;
    format      ascii;
    class       volScalarField;
    location    "0.4";
    object      T;
}
// * * * * * * * * * * * * * * * * * * * * * * * * * * * * * * * * * * * * * //

dimensions      [0 0 0 1 0 0 0];

internalField   nonuniform List<scalar> 
258048
(
1
1
1
1
1
1
1
1
1
1
1
1
1
1
1
1
1
1
1
1
1
1
1
1
1
1
1
1
1
1
1
1
1
1
1
1
1
1
1
1
1
1
1
1
1
1
1
1
1
1
1
1
1
1
1
1
1
1
1
1
1
1
1
1
1
1
1
1
1
1
1
1
1
1
1
1
1
1
1
1
1
1
1
1
1
1
1
1
1
1
1
1
1
1
1
1
1
1
1
1
1
1
1
1
1
1
1
1
1
1
1
1
1
1
1
1
1
1
1
1
1
1
1
1
1
1
1
2.30198
2.89909
2.89332
2.88868
2.89114
2.89701
2.90345
2.90503
2.90225
2.8975
2.89642
2.90059
2.91042
2.92075
2.93114
2.94088
2.9501
2.95762
2.9632
2.96763
2.97137
2.97361
2.97397
2.97364
2.97593
2.98373
2.99617
3.00991
3.02438
3.03844
3.05094
3.0608
3.07048
3.07933
3.08556
3.08976
3.09579
3.10677
3.12361
3.14384
3.16827
3.19539
3.22444
3.25893
3.30054
3.34612
3.38864
3.42138
3.44803
3.46981
3.48408
3.49069
3.49498
3.49767
3.50343
3.50577
3.5017
3.49493
3.49072
3.49611
3.50385
3.51668
3.5309
3.55067
3.56343
1
1
1
1
1
1
1
1
1
1
1
1
1
1
1
1
1
1
1
1
1
1
1
1
1
1
1
1
1
1
1
1
1
1
1
1
1
1
1
1
1
1
1
1
1
1
1
1
1
1
1
1
1
1
1
1
1
1
1
1
1
1
1
1
1
1
1
1
1
1
1
1
1
1
1
1
1
1
1
1
1
1
1
1
1
1
1
1
1
1
1
1
1
1
1
1
1
1
1
1
1
1
1
1
1
1
1
1
1
1
1
1
1
1
1
1
1
1
1
1
1
1
1
1
1
1
1
2.29969
2.89824
2.89374
2.8888
2.89121
2.89698
2.90326
2.9047
2.90185
2.89719
2.8963
2.90072
2.91064
2.92099
2.9313
2.94102
2.9502
2.95766
2.96318
2.96758
2.97127
2.97345
2.97378
2.97348
2.97587
2.98381
2.99631
3.01008
3.02453
3.03854
3.05097
3.0608
3.07045
3.07925
3.08544
3.08965
3.09577
3.10687
3.12376
3.14403
3.16849
3.19565
3.22481
3.25949
3.3012
3.34673
3.38898
3.4214
3.44806
3.47002
3.48416
3.49085
3.49506
3.49766
3.50335
3.50561
3.5015
3.49478
3.49067
3.49616
3.50392
3.51675
3.53086
3.55058
3.5633
1
1
1
1
1
1
1
1
1
1
1
1
1
1
1
1
1
1
1
1
1
1
1
1
1
1
1
1
1
1
1
1
1
1
1
1
1
1
1
1
1
1
1
1
1
1
1
1
1
1
1
1
1
1
1
1
1
1
1
1
1
1
1
1
1
1
1
1
1
1
1
1
1
1
1
1
1
1
1
1
1
1
1
1
1
1
1
1
1
1
1
1
1
1
1
1
1
1
1
1
1
1
1
1
1
1
1
1
1
1
1
1
1
1
1
1
1
1
1
1
1
1
1
1
1
1
1
2.29384
2.898
2.89374
2.88872
2.89103
2.89677
2.90292
2.90416
2.90117
2.89663
2.89603
2.90089
2.91095
2.92133
2.9315
2.9412
2.95029
2.95766
2.96311
2.96747
2.97108
2.97316
2.97343
2.97316
2.97574
2.98388
2.99649
3.0103
3.02472
3.03867
3.051
3.06076
3.07035
3.07907
3.0852
3.08942
3.09567
3.10698
3.12395
3.14427
3.16878
3.19607
3.22549
3.26058
3.30255
3.34801
3.38982
3.42163
3.44824
3.47035
3.48425
3.49101
3.49517
3.49759
3.50321
3.50538
3.50121
3.49457
3.4906
3.49624
3.50401
3.51684
3.53078
3.55046
3.56313
1
1
1
1
1
1
1
1
1
1
1
1
1
1
1
1
1
1
1
1
1
1
1
1
1
1
1
1
1
1
1
1
1
1
1
1
1
1
1
1
1
1
1
1
1
1
1
1
1
1
1
1
1
1
1
1
1
1
1
1
1
1
1
1
1
1
1
1
1
1
1
1
1
1
1
1
1
1
1
1
1
1
1
1
1
1
1
1
1
1
1
1
1
1
1
1
1
1
1
1
1
1
1
1
1
1
1
1
1
1
1
1
1
1
1
1
1
1
1
1
1
1
1
1
1
1
1
2.28448
2.898
2.89376
2.8884
2.89056
2.89627
2.90235
2.90335
2.90017
2.89582
2.89563
2.90115
2.91135
2.92178
2.93181
2.94142
2.95035
2.95756
2.9629
2.96721
2.97071
2.97265
2.97285
2.97266
2.97551
2.98397
2.99671
3.01056
3.02493
3.03877
3.05096
3.0606
3.07008
3.07865
3.0847
3.08898
3.09543
3.10704
3.12416
3.14452
3.16904
3.1965
3.22617
3.26163
3.30378
3.34911
3.39045
3.42178
3.44848
3.47075
3.48441
3.49121
3.4953
3.49748
3.50296
3.50498
3.50074
3.49423
3.49051
3.49636
3.50418
3.51697
3.5307
3.55026
3.56286
1
1
1
1
1
1
1
1
1
1
1
1
1
1
1
1
1
1
1
1
1
1
1
1
1
1
1
1
1
1
1
1
1
1
1
1
1
1
1
1
1
1
1
1
1
1
1
1
1
1
1
1
1
1
1
1
1
1
1
1
1
1
1
1
1
1
1
1
1
1
1
1
1
1
1
1
1
1
1
1
1
1
1
1
1
1
1
1
1
1
1
1
1
1
1
1
1
1
1
1
1
1
1
1
1
1
1
1
1
1
1
1
1
1
1
1
1
1
1
1
1
1
1
1
1
1
1
2.27231
2.89815
2.89342
2.88764
2.88978
2.89555
2.90164
2.90231
2.89887
2.89478
2.89511
2.90152
2.91184
2.92234
2.93226
2.94173
2.9504
2.95737
2.96256
2.9668
2.97016
2.97193
2.97205
2.97196
2.97517
2.98409
2.99696
3.01082
3.02512
3.03882
3.05081
3.06028
3.06957
3.07794
3.08386
3.08824
3.09496
3.10698
3.12427
3.14462
3.16913
3.19671
3.22654
3.26214
3.30428
3.34941
3.39041
3.42153
3.44855
3.47107
3.48464
3.49146
3.49541
3.49736
3.50266
3.50445
3.50011
3.49381
3.49042
3.49652
3.50442
3.51712
3.53059
3.54995
3.56245
1
1
1
1
1
1
1
1
1
1
1
1
1
1
1
1
1
1
1
1
1
1
1
1
1
1
1
1
1
1
1
1
1
1
1
1
1
1
1
1
1
1
1
1
1
1
1
1
1
1
1
1
1
1
1
1
1
1
1
1
1
1
1
1
1
1
1
1
1
1
1
1
1
1
1
1
1
1
1
1
1
1
1
1
1
1
1
1
1
1
1
1
1
1
1
1
1
1
1
1
1
1
1
1
1
1
1
1
1
1
1
1
1
1
1
1
1
1
1
1
1
1
1
1
1
1
1
2.25695
2.89835
2.89264
2.88654
2.88885
2.89475
2.90078
2.90101
2.89723
2.89361
2.89463
2.90201
2.91244
2.92299
2.9328
2.9421
2.95046
2.9571
2.96206
2.96621
2.9694
2.97099
2.97103
2.97111
2.97477
2.98429
2.99725
3.01109
3.02529
3.03882
3.05055
3.05981
3.06883
3.07693
3.08268
3.08718
3.09426
3.10681
3.12431
3.14461
3.16907
3.19665
3.22652
3.26205
3.30397
3.34883
3.38966
3.42081
3.44841
3.47127
3.48494
3.49176
3.49549
3.49723
3.50228
3.50374
3.49928
3.49326
3.49032
3.49675
3.50473
3.51731
3.53044
3.54952
3.56187
1
1
1
1
1
1
1
1
1
1
1
1
1
1
1
1
1
1
1
1
1
1
1
1
1
1
1
1
1
1
1
1
1
1
1
1
1
1
1
1
1
1
1
1
1
1
1
1
1
1
1
1
1
1
1
1
1
1
1
1
1
1
1
1
1
1
1
1
1
1
1
1
1
1
1
1
1
1
1
1
1
1
1
1
1
1
1
1
1
1
1
1
1
1
1
1
1
1
1
1
1
1
1
1
1
1
1
1
1
1
1
1
1
1
1
1
1
1
1
1
1
1
1
1
1
1
1
2.23801
2.8984
2.89133
2.88511
2.88785
2.89395
2.8998
2.89946
2.8953
2.89235
2.89422
2.9026
2.91315
2.92372
2.93339
2.94249
2.95048
2.95671
2.96141
2.96544
2.96843
2.96981
2.96978
2.97012
2.97439
2.98461
2.9976
3.01139
3.02545
3.03878
3.0502
3.05921
3.06789
3.07565
3.08117
3.08583
3.09337
3.10662
3.12433
3.14451
3.16882
3.19629
3.22608
3.26133
3.30279
3.34727
3.38805
3.41955
3.44798
3.47134
3.48526
3.4921
3.49555
3.49706
3.5018
3.50281
3.49821
3.4926
3.49024
3.49704
3.50512
3.51754
3.53026
3.54898
3.5611
1
1
1
1
1
1
1
1
1
1
1
1
1
1
1
1
1
1
1
1
1
1
1
1
1
1
1
1
1
1
1
1
1
1
1
1
1
1
1
1
1
1
1
1
1
1
1
1
1
1
1
1
1
1
1
1
1
1
1
1
1
1
1
1
1
1
1
1
1
1
1
1
1
1
1
1
1
1
1
1
1
1
1
1
1
1
1
1
1
1
1
1
1
1
1
1
1
1
1
1
1
1
1
1
1
1
1
1
1
1
1
1
1
1
1
1
1
1
1
1
1
1
1
1
1
1
1
2.21525
2.89797
2.88936
2.88339
2.88684
2.8932
2.89861
2.89752
2.89308
2.89101
2.89397
2.90332
2.91405
2.92455
2.93403
2.94286
2.9504
2.95615
2.96062
2.96448
2.96723
2.9684
2.96831
2.96904
2.9741
2.98504
2.99804
3.01172
3.02561
3.0387
3.04976
3.05849
3.06676
3.07413
3.0794
3.08427
3.0924
3.10651
3.1244
3.14437
3.16842
3.19563
3.22519
3.25991
3.30069
3.34469
3.38555
3.41771
3.44723
3.47132
3.48561
3.49247
3.49561
3.49688
3.50119
3.50166
3.49693
3.49183
3.49017
3.49741
3.50562
3.51782
3.53006
3.5483
3.56012
1
1
1
1
1
1
1
1
1
1
1
1
1
1
1
1
1
1
1
1
1
1
1
1
1
1
1
1
1
1
1
1
1
1
1
1
1
1
1
1
1
1
1
1
1
1
1
1
1
1
1
1
1
1
1
1
1
1
1
1
1
1
1
1
1
1
1
1
1
1
1
1
1
1
1
1
1
1
1
1
1
1
1
1
1
1
1
1
1
1
1
1
1
1
1
1
1
1
1
1
1
1
1
1
1
1
1
1
1
1
1
1
1
1
1
1
1
1
1
1
1
1
1
1
1
1
1
2.18846
2.89664
2.88653
2.8814
2.88588
2.89247
2.89706
2.8951
2.89067
2.88966
2.89406
2.90421
2.91516
2.92545
2.93468
2.94315
2.95015
2.95539
2.95967
2.96334
2.96582
2.96675
2.96664
2.96793
2.97395
2.98557
2.99859
3.01209
3.02576
3.03858
3.04922
3.05765
3.06545
3.07236
3.07739
3.08256
3.09144
3.10653
3.12456
3.14423
3.16795
3.19483
3.224
3.25798
3.29785
3.3412
3.38219
3.41531
3.44616
3.47119
3.48599
3.49287
3.49567
3.49667
3.50045
3.50026
3.49544
3.49095
3.49014
3.49785
3.50623
3.51815
3.52986
3.5475
3.55892
1
1
1
1
1
1
1
1
1
1
1
1
1
1
1
1
1
1
1
1
1
1
1
1
1
1
1
1
1
1
1
1
1
1
1
1
1
1
1
1
1
1
1
1
1
1
1
1
1
1
1
1
1
1
1
1
1
1
1
1
1
1
1
1
1
1
1
1
1
1
1
1
1
1
1
1
1
1
1
1
1
1
1
1
1
1
1
1
1
1
1
1
1
1
1
1
1
1
1
1
1
1
1
1
1
1
1
1
1
1
1
1
1
1
1
1
1
1
1
1
1
1
1
1
1
1
1
2.15735
2.89382
2.8827
2.87919
2.88504
2.89173
2.89498
2.89218
2.88821
2.88841
2.89471
2.90539
2.91646
2.92639
2.9353
2.94329
2.94968
2.95444
2.95856
2.96202
2.96419
2.96486
2.96479
2.9668
2.97404
2.98619
2.9992
3.01249
3.02588
3.03837
3.04857
3.05665
3.06393
3.07035
3.07516
3.08078
3.09058
3.10668
3.12484
3.14415
3.16747
3.19395
3.22262
3.25569
3.29443
3.33697
3.37808
3.41241
3.44483
3.47096
3.4864
3.49328
3.4957
3.49645
3.49952
3.4986
3.49379
3.48999
3.49011
3.49839
3.50694
3.51853
3.52965
3.54659
3.55749
1
1
1
1
1
1
1
1
1
1
1
1
1
1
1
1
1
1
1
1
1
1
1
1
1
1
1
1
1
1
1
1
1
1
1
1
1
1
1
1
1
1
1
1
1
1
1
1
1
1
1
1
1
1
1
1
1
1
1
1
1
1
1
1
1
1
1
1
1
1
1
1
1
1
1
1
1
1
1
1
1
1
1
1
1
1
1
1
1
1
1
1
1
1
1
1
1
1
1
1
1
1
1
1
1
1
1
1
1
1
1
1
1
1
1
1
1
1
1
1
1
1
1
1
1
1
1
2.12146
2.88865
2.87797
2.8769
2.88441
2.89077
2.89222
2.88887
2.88591
2.88759
2.89584
2.90695
2.91788
2.92733
2.93582
2.94321
2.94891
2.95331
2.95729
2.96051
2.96235
2.96274
2.96281
2.96569
2.97444
2.98688
2.99986
3.0129
3.02593
3.03804
3.04778
3.05549
3.06219
3.06808
3.07272
3.07898
3.08984
3.10692
3.12518
3.14409
3.16698
3.19303
3.22113
3.25316
3.29061
3.33217
3.3734
3.40921
3.44332
3.47064
3.48684
3.4937
3.49571
3.49618
3.49839
3.49669
3.49198
3.48898
3.4901
3.49899
3.50774
3.51895
3.52944
3.54557
3.55581
1
1
1
1
1
1
1
1
1
1
1
1
1
1
1
1
1
1
1
1
1
1
1
1
1
1
1
1
1
1
1
1
1
1
1
1
1
1
1
1
1
1
1
1
1
1
1
1
1
1
1
1
1
1
1
1
1
1
1
1
1
1
1
1
1
1
1
1
1
1
1
1
1
1
1
1
1
1
1
1
1
1
1
1
1
1
1
1
1
1
1
1
1
1
1
1
1
1
1
1
1
1
1
1
1
1
1
1
1
1
1
1
1
1
1
1
1
1
1
1
1
1
1
1
1
1
1
2.07956
2.87987
2.873
2.8747
2.88393
2.88919
2.88893
2.88547
2.884
2.8876
2.89739
2.90882
2.91928
2.92819
2.93615
2.94283
2.94785
2.95202
2.95585
2.95881
2.9603
2.96041
2.96076
2.96476
2.97505
2.98768
3.00053
3.01327
3.02589
3.03756
3.04686
3.05415
3.06024
3.06555
3.07007
3.07721
3.08935
3.10717
3.12544
3.14406
3.1665
3.19207
3.21954
3.25044
3.2865
3.32698
3.36836
3.40587
3.44174
3.47025
3.48723
3.4941
3.49567
3.49583
3.49707
3.49455
3.49003
3.48793
3.49013
3.49966
3.50864
3.51939
3.52924
3.54446
3.5539
1
1
1
1
1
1
1
1
1
1
1
1
1
1
1
1
1
1
1
1
1
1
1
1
1
1
1
1
1
1
1
1
1
1
1
1
1
1
1
1
1
1
1
1
1
1
1
1
1
1
1
1
1
1
1
1
1
1
1
1
1
1
1
1
1
1
1
1
1
1
1
1
1
1
1
1
1
1
1
1
1
1
1
1
1
1
1
1
1
1
1
1
1
1
1
1
1
1
1
1
1
1
1
1
1
1
1
1
1
1
1
1
1
1
1
1
1
1
1
1
1
1
1
1
1
1
1
2.0289
2.86555
2.8695
2.8732
2.88268
2.8867
2.88538
2.8825
2.88267
2.88857
2.89937
2.91078
2.92057
2.9289
2.93621
2.94209
2.94653
2.95057
2.95425
2.95692
2.95802
2.95788
2.95871
2.96419
2.9758
2.98856
3.00119
3.01359
3.02572
3.0369
3.04579
3.05263
3.05807
3.06277
3.06722
3.07548
3.08908
3.10741
3.12563
3.14401
3.16598
3.19104
3.21785
3.24759
3.28217
3.3215
3.36311
3.40253
3.44013
3.46978
3.48752
3.49444
3.49558
3.49536
3.49555
3.49219
3.48796
3.48685
3.4902
3.5004
3.50961
3.51985
3.52903
3.54325
3.55174
1
1
1
1
1
1
1
1
1
1
1
1
1
1
1
1
1
1
1
1
1
1
1
1
1
1
1
1
1
1
1
1
1
1
1
1
1
1
1
1
1
1
1
1
1
1
1
1
1
1
1
1
1
1
1
1
1
1
1
1
1
1
1
1
1
1
1
1
1
1
1
1
1
1
1
1
1
1
1
1
1
1
1
1
1
1
1
1
1
1
1
1
1
1
1
1
1
1
1
1
1
1
1
1
1
1
1
1
1
1
1
1
1
1
1
1
1
1
1
1
1
1
1
1
1
1
1
1.96892
2.84591
2.8671
2.87113
2.88049
2.88353
2.88201
2.88038
2.88216
2.89025
2.90165
2.91262
2.92165
2.92935
2.93589
2.94093
2.94502
2.94896
2.95248
2.95479
2.95548
2.95518
2.95675
2.96419
2.97663
2.98945
3.00181
3.0138
3.02538
3.03603
3.04455
3.05089
3.0557
3.05977
3.06424
3.07381
3.08899
3.10765
3.12575
3.14387
3.16536
3.18989
3.21603
3.24457
3.27762
3.3158
3.35775
3.39921
3.43847
3.46922
3.48766
3.49466
3.49542
3.49475
3.49381
3.48967
3.48578
3.48575
3.49035
3.5012
3.51065
3.5203
3.52884
3.54195
3.54934
1
1
1
1
1
1
1
1
1
1
1
1
1
1
1
1
1
1
1
1
1
1
1
1
1
1
1
1
1
1
1
1
1
1
1
1
1
1
1
1
1
1
1
1
1
1
1
1
1
1
1
1
1
1
1
1
1
1
1
1
1
1
1
1
1
1
1
1
1
1
1
1
1
1
1
1
1
1
1
1
1
1
1
1
1
1
1
1
1
1
1
1
1
1
1
1
1
1
1
1
1
1
1
1
1
1
1
1
1
1
1
1
1
1
1
1
1
1
1
1
1
1
1
1
1
1
1
1.89904
2.82019
2.86465
2.86859
2.87752
2.88022
2.87929
2.8791
2.88275
2.89246
2.90401
2.91421
2.92245
2.92943
2.93511
2.93942
2.94337
2.9472
2.95049
2.95238
2.95263
2.95241
2.95513
2.96475
2.97754
2.99031
3.00236
3.01387
3.02485
3.03494
3.0431
3.04892
3.05312
3.05656
3.06124
3.07229
3.08901
3.1079
3.1258
3.14361
3.1646
3.18858
3.21401
3.24134
3.27286
3.30995
3.35237
3.39594
3.43672
3.46854
3.4876
3.49479
3.49518
3.49397
3.49186
3.48695
3.48354
3.48469
3.49053
3.50206
3.51173
3.52071
3.52866
3.54054
3.54672
1
1
1
1
1
1
1
1
1
1
1
1
1
1
1
1
1
1
1
1
1
1
1
1
1
1
1
1
1
1
1
1
1
1
1
1
1
1
1
1
1
1
1
1
1
1
1
1
1
1
1
1
1
1
1
1
1
1
1
1
1
1
1
1
1
1
1
1
1
1
1
1
1
1
1
1
1
1
1
1
1
1
1
1
1
1
1
1
1
1
1
1
1
1
1
1
1
1
1
1
1
1
1
1
1
1
1
1
1
1
1
1
1
1
1
1
1
1
1
1
1
1
1
1
1
1
1
1.81799
2.78712
2.86173
2.86574
2.87422
2.87738
2.87758
2.8785
2.88448
2.8951
2.90624
2.91545
2.92286
2.92898
2.93379
2.93772
2.94159
2.94529
2.94824
2.94964
2.94949
2.94969
2.95422
2.9656
2.97855
2.99113
3.00281
3.01375
3.02409
3.03364
3.04141
3.04669
3.05031
3.05317
3.05838
3.07103
3.08912
3.10815
3.12575
3.1432
3.16365
3.18705
3.21175
3.23785
3.26788
3.304
3.34704
3.39265
3.43483
3.46762
3.48735
3.49482
3.49488
3.49302
3.48967
3.48401
3.48125
3.48369
3.49077
3.50298
3.51285
3.52109
3.52848
3.53903
3.54389
1
1
1
1
1
1
1
1
1
1
1
1
1
1
1
1
1
1
1
1
1
1
1
1
1
1
1
1
1
1
1
1
1
1
1
1
1
1
1
1
1
1
1
1
1
1
1
1
1
1
1
1
1
1
1
1
1
1
1
1
1
1
1
1
1
1
1
1
1
1
1
1
1
1
1
1
1
1
1
1
1
1
1
1
1
1
1
1
1
1
1
1
1
1
1
1
1
1
1
1
1
1
1
1
1
1
1
1
1
1
1
1
1
1
1
1
1
1
1
1
1
1
1
1
1
1
1
1.72632
2.74569
2.85683
2.86268
2.87174
2.8758
2.87642
2.87897
2.88697
2.8979
2.90818
2.91624
2.9227
2.92791
2.93205
2.93589
2.93969
2.94318
2.94566
2.94652
2.94615
2.94721
2.95425
2.96659
2.97955
2.99185
3.00309
3.01338
3.02307
3.03214
3.03943
3.04417
3.04726
3.04964
3.05578
3.07016
3.08928
3.10833
3.12558
3.14261
3.16248
3.18526
3.20918
3.23406
3.26267
3.298
3.34181
3.3893
3.43279
3.46643
3.48699
3.49467
3.49445
3.49192
3.48722
3.48088
3.47893
3.48276
3.49107
3.50394
3.51397
3.52143
3.52827
3.53743
3.54088
1
1
1
1
1
1
1
1
1
1
1
1
1
1
1
1
1
1
1
1
1
1
1
1
1
1
1
1
1
1
1
1
1
1
1
1
1
1
1
1
1
1
1
1
1
1
1
1
1
1
1
1
1
1
1
1
1
1
1
1
1
1
1
1
1
1
1
1
1
1
1
1
1
1
1
1
1
1
1
1
1
1
1
1
1
1
1
1
1
1
1
1
1
1
1
1
1
1
1
1
1
1
1
1
1
1
1
1
1
1
1
1
1
1
1
1
1
1
1
1
1
1
1
1
1
1
1
1.62121
2.69382
2.85078
2.86046
2.87135
2.87483
2.87597
2.88069
2.88997
2.90058
2.90962
2.91646
2.92183
2.92626
2.93007
2.93392
2.93763
2.94079
2.9427
2.94301
2.94282
2.94545
2.95505
2.96772
2.9805
2.99242
3.00316
3.01272
3.02178
3.03038
3.03715
3.04135
3.04394
3.04608
3.05356
3.06971
3.08943
3.10842
3.12528
3.14184
3.16108
3.18316
3.20625
3.22991
3.25724
3.29202
3.3367
3.38585
3.43056
3.46498
3.48647
3.49433
3.49386
3.49065
3.48454
3.47754
3.47656
3.48192
3.49141
3.50494
3.51507
3.52173
3.52804
3.53574
3.53768
1
1
1
1
1
1
1
1
1
1
1
1
1
1
1
1
1
1
1
1
1
1
1
1
1
1
1
1
1
1
1
1
1
1
1
1
1
1
1
1
1
1
1
1
1
1
1
1
1
1
1
1
1
1
1
1
1
1
1
1
1
1
1
1
1
1
1
1
1
1
1
1
1
1
1
1
1
1
1
1
1
1
1
1
1
1
1
1
1
1
1
1
1
1
1
1
1
1
1
1
1
1
1
1
1
1
1
1
1
1
1
1
1
1
1
1
1
1
1
1
1
1
1
1
1
1
1
1.49892
2.63035
2.84558
2.86029
2.87208
2.87424
2.87674
2.88321
2.89299
2.90275
2.91034
2.91596
2.92037
2.92422
2.92794
2.9318
2.93537
2.93806
2.93931
2.9392
2.93973
2.94491
2.95622
2.96892
2.98132
2.99278
3.00296
3.01173
3.02023
3.02833
3.03456
3.03823
3.04035
3.04263
3.05186
3.06954
3.08954
3.10841
3.12485
3.1409
3.15945
3.18074
3.20291
3.22536
3.25159
3.28614
3.33176
3.38227
3.42812
3.46328
3.4857
3.49381
3.49308
3.48921
3.48167
3.47403
3.47413
3.4812
3.49179
3.50595
3.5161
3.52201
3.52776
3.53397
3.53435
1
1
1
1
1
1
1
1
1
1
1
1
1
1
1
1
1
1
1
1
1
1
1
1
1
1
1
1
1
1
1
1
1
1
1
1
1
1
1
1
1
1
1
1
1
1
1
1
1
1
1
1
1
1
1
1
1
1
1
1
1
1
1
1
1
1
1
1
1
1
1
1
1
1
1
1
1
1
1
1
1
1
1
1
1
1
1
1
1
1
1
1
1
1
1
1
1
1
1
1
1
1
1
1
1
1
1
1
1
1
1
1
1
1
1
1
1
1
1
1
1
1
1
1
1
1
1
1.35842
2.55634
2.84275
2.86403
2.8731
2.87495
2.87864
2.88592
2.89545
2.90392
2.91023
2.91474
2.91847
2.92189
2.92567
2.92956
2.93288
2.93492
2.93547
2.93537
2.9374
2.94561
2.95754
2.97004
2.98195
2.99287
3.00239
3.0104
3.0184
3.02595
3.03165
3.03482
3.03653
3.03947
3.05077
3.06949
3.08956
3.10828
3.12429
3.13977
3.15757
3.17798
3.19912
3.22038
3.24576
3.28045
3.32701
3.37851
3.42544
3.46132
3.48463
3.49304
3.4921
3.48755
3.4786
3.47044
3.47172
3.4805
3.49219
3.50697
3.51702
3.52226
3.52745
3.53212
3.53085
1
1
1
1
1
1
1
1
1
1
1
1
1
1
1
1
1
1
1
1
1
1
1
1
1
1
1
1
1
1
1
1
1
1
1
1
1
1
1
1
1
1
1
1
1
1
1
1
1
1
1
1
1
1
1
1
1
1
1
1
1
1
1
1
1
1
1
1
1
1
1
1
1
1
1
1
1
1
1
1
1
1
1
1
1
1
1
1
1
1
1
1
1
1
1
1
1
1
1
1
1
1
1
1
1
1
1
1
1
1
1
1
1
1
1
1
1
1
1
1
1
1
1
1
1
1
1
1.20406
2.47491
2.84772
2.87
2.87531
2.87658
2.88058
2.88785
2.89661
2.9041
2.90934
2.91294
2.91606
2.91937
2.92336
2.92724
2.93004
2.93126
2.93127
2.93188
2.93655
2.94697
2.95895
2.97095
2.98233
2.99265
3.00138
3.00879
3.01624
3.02325
3.0284
3.03111
3.03257
3.03685
3.05028
3.06944
3.08946
3.108
3.12358
3.13847
3.15545
3.17486
3.19486
3.21496
3.2398
3.27505
3.32247
3.37453
3.42249
3.45915
3.48318
3.49197
3.49091
3.48566
3.47529
3.4669
3.4694
3.47976
3.49258
3.50796
3.51782
3.52249
3.52716
3.53018
3.52717
1
1
1
1
1
1
1
1
1
1
1
1
1
1
1
1
1
1
1
1
1
1
1
1
1
1
1
1
1
1
1
1
1
1
1
1
1
1
1
1
1
1
1
1
1
1
1
1
1
1
1
1
1
1
1
1
1
1
1
1
1
1
1
1
1
1
1
1
1
1
1
1
1
1
1
1
1
1
1
1
1
1
1
1
1
1
1
1
1
1
1
1
1
1
1
1
1
1
1
1
1
1
1
1
1
1
1
1
1
1
1
1
1
1
1
1
1
1
1
1
1
1
1
1
1
1
1
1.06308
2.39596
2.8619
2.87639
2.87707
2.87764
2.88119
2.88834
2.89682
2.90356
2.90765
2.91046
2.9133
2.9169
2.92113
2.92472
2.92665
2.92704
2.92711
2.92942
2.93726
2.9485
2.96023
2.97158
2.98236
2.99201
2.99994
3.00687
3.01373
3.02021
3.02482
3.0271
3.02869
3.03503
3.05021
3.06933
3.08919
3.10754
3.1227
3.13698
3.15306
3.17135
3.19009
3.20914
3.23382
3.27003
3.31814
3.37033
3.41918
3.4568
3.48126
3.4905
3.48954
3.48348
3.47177
3.46352
3.46722
3.47895
3.49294
3.50888
3.51846
3.52271
3.52684
3.52819
3.52335
1
1
1
1
1
1
1
1
1
1
1
1
1
1
1
1
1
1
1
1
1
1
1
1
1
1
1
1
1
1
1
1
1
1
1
1
1
1
1
1
1
1
1
1
1
1
1
1
1
1
1
1
1
1
1
1
1
1
1
1
1
1
1
1
1
1
1
1
1
1
1
1
1
1
1
1
1
1
1
1
1
1
1
1
1
1
1
1
1
1
1
1
1
1
1
1
1
1
1
1
1
1
1
1
1
1
1
1
1
1
1
1
1
1
1
1
1
1
1
1
1
1
1
1
1
1
1
1.00074
2.32757
2.87397
2.87947
2.87637
2.87665
2.88039
2.88814
2.89648
2.90213
2.90507
2.90739
2.91052
2.91464
2.91885
2.92165
2.92258
2.92257
2.92362
2.92876
2.93879
2.95007
2.96122
2.97187
2.98196
2.9909
2.99815
3.00462
3.0109
3.01682
3.02087
3.02285
3.02514
3.03416
3.05034
3.06914
3.08872
3.10686
3.12163
3.13527
3.15036
3.16742
3.18478
3.20299
3.22799
3.26544
3.31399
3.36598
3.41542
3.45406
3.47897
3.48867
3.48789
3.48095
3.4681
3.46043
3.46522
3.47807
3.4932
3.5096
3.51903
3.52283
3.52642
3.5262
3.51943
1
1
1
1
1
1
1
1
1
1
1
1
1
1
1
1
1
1
1
1
1
1
1
1
1
1
1
1
1
1
1
1
1
1
1
1
1
1
1
1
1
1
1
1
1
1
1
1
1
1
1
1
1
1
1
1
1
1
1
1
1
1
1
1
1
1
1
1
1
1
1
1
1
1
1
1
1
1
1
1
1
1
1
1
1
1
1
1
1
1
1
1
1
1
1
1
1
1
1
1
1
1
1
1
1
1
1
1
1
1
1
1
1
1
1
1
1
1
1
1
1
1
1
1
1
1
1
1
2.26003
2.88028
2.8789
2.87283
2.8736
2.87887
2.88771
2.89536
2.89965
2.90171
2.90411
2.90795
2.91241
2.91608
2.91777
2.91804
2.9185
2.9216
2.92972
2.9405
2.95143
2.96184
2.97179
2.98104
2.98925
2.99606
3.00205
3.00778
3.01308
3.01653
3.0185
3.02238
3.03404
3.05056
3.06884
3.08801
3.10591
3.12033
3.13332
3.14732
3.16302
3.17896
3.19666
3.22249
3.26129
3.30995
3.3615
3.41114
3.45078
3.47635
3.48653
3.48586
3.47801
3.4644
3.45775
3.46341
3.47713
3.49331
3.51009
3.51952
3.52288
3.52579
3.52415
3.51556
1
1
1
1
1
1
1
1
1
1
1
1
1
1
1
1
1
1
1
1
1
1
1
1
1
1
1
1
1
1
1
1
1
1
1
1
1
1
1
1
1
1
1
1
1
1
1
1
1
1
1
1
1
1
1
1
1
1
1
1
1
1
1
1
1
1
1
1
1
1
1
1
1
1
1
1
1
1
1
1
1
1
1
1
1
1
1
1
1
1
1
1
1
1
1
1
1
1
1
1
1
1
1
1
1
1
1
1
1
1
1
1
1
1
1
1
1
1
1
1
1
1
1
1
1
1
1
1
2.18952
2.87917
2.87403
2.86826
2.87049
2.87764
2.88701
2.89332
2.89624
2.89801
2.90103
2.90547
2.90977
2.91242
2.91327
2.91367
2.9156
2.9216
2.93143
2.94215
2.95243
2.96207
2.97119
2.9796
2.98715
2.99364
2.9992
3.0044
3.00895
3.01177
3.01433
3.02078
3.03438
3.05075
3.06839
3.08703
3.10465
3.11879
3.13107
3.14388
3.15814
3.17265
3.19033
3.2175
3.25756
3.30595
3.35685
3.40633
3.44688
3.47339
3.4841
3.48335
3.47461
3.46082
3.45555
3.46179
3.47613
3.49324
3.51034
3.51989
3.52277
3.52494
3.522
3.51184
1
1
1
1
1
1
1
1
1
1
1
1
1
1
1
1
1
1
1
1
1
1
1
1
1
1
1
1
1
1
1
1
1
1
1
1
1
1
1
1
1
1
1
1
1
1
1
1
1
1
1
1
1
1
1
1
1
1
1
1
1
1
1
1
1
1
1
1
1
1
1
1
1
1
1
1
1
1
1
1
1
1
1
1
1
1
1
1
1
1
1
1
1
1
1
1
1
1
1
1
1
1
1
1
1
1
1
1
1
1
1
1
1
1
1
1
1
1
1
1
1
1
1
1
1
1
1
1
2.11326
2.86937
2.86609
2.86413
2.86827
2.87709
2.88582
2.8906
2.8925
2.89452
2.8982
2.90265
2.90628
2.90801
2.90874
2.91022
2.91451
2.92295
2.93328
2.9435
2.95299
2.96185
2.96998
2.97762
2.9847
2.99088
2.99612
3.00077
3.00442
3.00673
3.01072
3.02037
3.03492
3.05087
3.06774
3.08578
3.10303
3.11697
3.12848
3.14002
3.15277
3.16597
3.18425
3.2132
3.25414
3.30189
3.35203
3.40106
3.44237
3.47002
3.48126
3.48026
3.47078
3.45753
3.45385
3.46037
3.47505
3.49295
3.51037
3.52005
3.52245
3.52388
3.51971
3.50838
1
1
1
1
1
1
1
1
1
1
1
1
1
1
1
1
1
1
1
1
1
1
1
1
1
1
1
1
1
1
1
1
1
1
1
1
1
1
1
1
1
1
1
1
1
1
1
1
1
1
1
1
1
1
1
1
1
1
1
1
1
1
1
1
1
1
1
1
1
1
1
1
1
1
1
1
1
1
1
1
1
1
1
1
1
1
1
1
1
1
1
1
1
1
1
1
1
1
1
1
1
1
1
1
1
1
1
1
1
1
1
1
1
1
1
1
1
1
1
1
1
1
1
1
1
1
1
1
2.01744
2.84366
2.86047
2.86097
2.86747
2.87709
2.88436
2.88771
2.88897
2.89126
2.89503
2.89912
2.90197
2.90342
2.90494
2.90829
2.91519
2.92483
2.93492
2.94435
2.95306
2.961
2.96819
2.97517
2.98189
2.98785
2.99282
2.99682
2.99944
3.00181
3.00822
3.02074
3.03555
3.05083
3.06681
3.08422
3.10108
3.1148
3.12552
3.13573
3.14693
3.15911
3.17867
3.20963
3.25087
3.2977
3.34701
3.3954
3.43731
3.46609
3.47782
3.47653
3.46664
3.45472
3.45261
3.45915
3.47391
3.49242
3.51014
3.51992
3.52191
3.52256
3.51724
3.50531
1
1
1
1
1
1
1
1
1
1
1
1
1
1
1
1
1
1
1
1
1
1
1
1
1
1
1
1
1
1
1
1
1
1
1
1
1
1
1
1
1
1
1
1
1
1
1
1
1
1
1
1
1
1
1
1
1
1
1
1
1
1
1
1
1
1
1
1
1
1
1
1
1
1
1
1
1
1
1
1
1
1
1
1
1
1
1
1
1
1
1
1
1
1
1
1
1
1
1
1
1
1
1
1
1
1
1
1
1
1
1
1
1
1
1
1
1
1
1
1
1
1
1
1
1
1
1
1
1.88593
2.79683
2.85672
2.85806
2.86768
2.87779
2.88303
2.88448
2.88527
2.8876
2.89121
2.89498
2.89749
2.89948
2.90252
2.90822
2.91687
2.92667
2.93601
2.94464
2.95251
2.95947
2.96585
2.97233
2.97874
2.98459
2.98923
2.99245
2.99414
2.99757
3.0072
3.02145
3.03613
3.05053
3.06558
3.08231
3.09875
3.11222
3.12218
3.131
3.14068
3.15235
3.17384
3.20666
3.24763
3.29337
3.34178
3.3894
3.43169
3.4615
3.47366
3.47214
3.46238
3.45246
3.45176
3.45818
3.47272
3.49164
3.5096
3.51944
3.5211
3.52095
3.51456
3.50276
1
1
1
1
1
1
1
1
1
1
1
1
1
1
1
1
1
1
1
1
1
1
1
1
1
1
1
1
1
1
1
1
1
1
1
1
1
1
1
1
1
1
1
1
1
1
1
1
1
1
1
1
1
1
1
1
1
1
1
1
1
1
1
1
1
1
1
1
1
1
1
1
1
1
1
1
1
1
1
1
1
1
1
1
1
1
1
1
1
1
1
1
1
1
1
1
1
1
1
1
1
1
1
1
1
1
1
1
1
1
1
1
1
1
1
1
1
1
1
1
1
1
1
1
1
1
1
1
1.71365
2.72562
2.85366
2.85668
2.86944
2.87822
2.88046
2.88018
2.88084
2.8832
2.88717
2.89088
2.89374
2.89689
2.90187
2.90945
2.91878
2.92796
2.93642
2.94425
2.9512
2.95725
2.96308
2.96912
2.97537
2.98111
2.98523
2.98753
2.98895
2.99467
3.00734
3.02221
3.03649
3.04992
3.06404
3.08003
3.09601
3.10918
3.11839
3.12583
3.13409
3.14605
3.16987
3.20402
3.24435
3.2889
3.33631
3.38306
3.42548
3.45617
3.46871
3.46709
3.45817
3.45077
3.4512
3.45753
3.47148
3.49057
3.50873
3.51859
3.5199
3.51897
3.51173
3.50083
1
1
1
1
1
1
1
1
1
1
1
1
1
1
1
1
1
1
1
1
1
1
1
1
1
1
1
1
1
1
1
1
1
1
1
1
1
1
1
1
1
1
1
1
1
1
1
1
1
1
1
1
1
1
1
1
1
1
1
1
1
1
1
1
1
1
1
1
1
1
1
1
1
1
1
1
1
1
1
1
1
1
1
1
1
1
1
1
1
1
1
1
1
1
1
1
1
1
1
1
1
1
1
1
1
1
1
1
1
1
1
1
1
1
1
1
1
1
1
1
1
1
1
1
1
1
1
1
1.5047
2.62793
2.85042
2.8583
2.8717
2.87629
2.87567
2.87439
2.87562
2.87894
2.88361
2.88767
2.89135
2.89594
2.90259
2.91129
2.92022
2.92847
2.93609
2.94297
2.94909
2.95451
2.95992
2.9657
2.97185
2.97726
2.98068
2.98214
2.98452
2.99355
3.00794
3.02286
3.03661
3.04899
3.06219
3.07737
3.09283
3.1056
3.1141
3.12025
3.12733
3.14051
3.16672
3.20155
3.241
3.2843
3.33061
3.37638
3.41863
3.44997
3.46291
3.46148
3.4541
3.44965
3.45096
3.45714
3.4702
3.4892
3.50749
3.51734
3.51826
3.51661
3.50881
3.49956
1
1
1
1
1
1
1
1
1
1
1
1
1
1
1
1
1
1
1
1
1
1
1
1
1
1
1
1
1
1
1
1
1
1
1
1
1
1
1
1
1
1
1
1
1
1
1
1
1
1
1
1
1
1
1
1
1
1
1
1
1
1
1
1
1
1
1
1
1
1
1
1
1
1
1
1
1
1
1
1
1
1
1
1
1
1
1
1
1
1
1
1
1
1
1
1
1
1
1
1
1
1
1
1
1
1
1
1
1
1
1
1
1
1
1
1
1
1
1
1
1
1
1
1
1
1
1
1
1.26776
2.50954
2.84706
2.86391
2.87171
2.87106
2.86859
2.86816
2.8708
2.87596
2.88135
2.8859
2.8904
2.89629
2.90419
2.91277
2.92082
2.92815
2.93481
2.94087
2.94631
2.9514
2.95654
2.96219
2.96811
2.97283
2.97545
2.97681
2.98165
2.9937
3.00856
3.02322
3.03638
3.04772
3.06005
3.07437
3.08919
3.10143
3.10921
3.11431
3.12079
3.13603
3.16413
3.19908
3.23757
3.27959
3.32467
3.36936
3.4111
3.44275
3.45619
3.45557
3.45032
3.449
3.45101
3.45702
3.46885
3.48749
3.50582
3.5156
3.51611
3.5139
3.50601
3.49884
1
1
1
1
1
1
1
1
1
1
1
1
1
1
1
1
1
1
1
1
1
1
1
1
1
1
1
1
1
1
1
1
1
1
1
1
1
1
1
1
1
1
1
1
1
1
1
1
1
1
1
1
1
1
1
1
1
1
1
1
1
1
1
1
1
1
1
1
1
1
1
1
1
1
1
1
1
1
1
1
1
1
1
1
1
1
1
1
1
1
1
1
1
1
1
1
1
1
1
1
1
1
1
1
1
1
1
1
1
1
1
1
1
1
1
1
1
1
1
1
1
1
1
1
1
1
1
1
1.04286
2.38728
2.85646
2.8673
2.86643
2.86337
2.86118
2.86288
2.86809
2.87478
2.88063
2.88533
2.89054
2.89747
2.90552
2.91339
2.9205
2.92685
2.93264
2.93807
2.94314
2.94805
2.9531
2.95858
2.9639
2.96768
2.96977
2.97238
2.98075
2.99434
3.009
3.02317
3.03565
3.04613
3.05763
3.07103
3.08507
3.09661
3.10367
3.1081
3.115
3.13265
3.16178
3.19648
3.23406
3.27478
3.31849
3.36198
3.40286
3.43431
3.44859
3.44972
3.44693
3.44865
3.4514
3.45702
3.46741
3.48546
3.50368
3.51331
3.51344
3.51086
3.50347
3.49858
1
1
1
1
1
1
1
1
1
1
1
1
1
1
1
1
1
1
1
1
1
1
1
1
1
1
1
1
1
1
1
1
1
1
1
1
1
1
1
1
1
1
1
1
1
1
1
1
1
1
1
1
1
1
1
1
1
1
1
1
1
1
1
1
1
1
1
1
1
1
1
1
1
1
1
1
1
1
1
1
1
1
1
1
1
1
1
1
1
1
1
1
1
1
1
1
1
1
1
1
1
1
1
1
1
1
1
1
1
1
1
1
1
1
1
1
1
1
1
1
1
1
1
1
1
1
1
1
1.00023
2.27841
2.86193
2.86369
2.85874
2.85533
2.8556
2.86025
2.86786
2.8753
2.88073
2.88541
2.8912
2.89838
2.90595
2.91301
2.91917
2.92465
2.92983
2.93483
2.93979
2.94468
2.94962
2.95461
2.95895
2.9619
2.96439
2.96984
2.98107
2.99492
3.00914
3.02264
3.03434
3.04425
3.05487
3.06729
3.08048
3.09117
3.09749
3.10183
3.11044
3.13012
3.15941
3.19367
3.23044
3.26986
3.31206
3.35419
3.39394
3.42482
3.43992
3.44357
3.44437
3.44883
3.4519
3.45701
3.46594
3.4831
3.50096
3.51039
3.51023
3.50756
3.50133
3.49868
1
1
1
1
1
1
1
1
1
1
1
1
1
1
1
1
1
1
1
1
1
1
1
1
1
1
1
1
1
1
1
1
1
1
1
1
1
1
1
1
1
1
1
1
1
1
1
1
1
1
1
1
1
1
1
1
1
1
1
1
1
1
1
1
1
1
1
1
1
1
1
1
1
1
1
1
1
1
1
1
1
1
1
1
1
1
1
1
1
1
1
1
1
1
1
1
1
1
1
1
1
1
1
1
1
1
1
1
1
1
1
1
1
1
1
1
1
1
1
1
1
1
1
1
1
1
1
1
1
2.16653
2.85873
2.85601
2.85003
2.84935
2.85268
2.8606
2.86951
2.87639
2.88094
2.88554
2.89147
2.89844
2.90542
2.91158
2.91693
2.92184
2.92656
2.93146
2.93644
2.94128
2.94585
2.95
2.95331
2.95605
2.96041
2.96937
2.98179
2.99522
3.00877
3.02153
3.03255
3.04197
3.05168
3.06309
3.0754
3.08516
3.09084
3.09589
3.10733
3.12809
3.15691
3.1906
3.22667
3.26481
3.30538
3.34598
3.38431
3.41435
3.43045
3.43746
3.4424
3.44916
3.45248
3.45696
3.46444
3.48038
3.49763
3.50675
3.50643
3.50413
3.4997
3.49906
1
1
1
1
1
1
1
1
1
1
1
1
1
1
1
1
1
1
1
1
1
1
1
1
1
1
1
1
1
1
1
1
1
1
1
1
1
1
1
1
1
1
1
1
1
1
1
1
1
1
1
1
1
1
1
1
1
1
1
1
1
1
1
1
1
1
1
1
1
1
1
1
1
1
1
1
1
1
1
1
1
1
1
1
1
1
1
1
1
1
1
1
1
1
1
1
1
1
1
1
1
1
1
1
1
1
1
1
1
1
1
1
1
1
1
1
1
1
1
1
1
1
1
1
1
1
1
1
1
2.05031
2.83985
2.8455
2.84283
2.84528
2.8528
2.86295
2.87155
2.87673
2.88041
2.88491
2.89091
2.89763
2.90389
2.90931
2.91407
2.91855
2.92317
2.9281
2.93305
2.93761
2.94149
2.94471
2.94742
2.9512
2.95863
2.96988
2.9824
2.99508
3.00768
3.01979
3.03031
3.03924
3.04804
3.0584
3.06976
3.07857
3.08401
3.09092
3.10539
3.12627
3.15422
3.18722
3.22266
3.25962
3.29848
3.33734
3.37398
3.40297
3.42041
3.43157
3.44074
3.44937
3.45315
3.45687
3.46288
3.47731
3.49363
3.50235
3.50206
3.50065
3.49862
3.49963
1
1
1
1
1
1
1
1
1
1
1
1
1
1
1
1
1
1
1
1
1
1
1
1
1
1
1
1
1
1
1
1
1
1
1
1
1
1
1
1
1
1
1
1
1
1
1
1
1
1
1
1
1
1
1
1
1
1
1
1
1
1
1
1
1
1
1
1
1
1
1
1
1
1
1
1
1
1
1
1
1
1
1
1
1
1
1
1
1
1
1
1
1
1
1
1
1
1
1
1
1
1
1
1
1
1
1
1
1
1
1
1
1
1
1
1
1
1
1
1
1
1
1
1
1
1
1
1
1
1.91351
2.79831
2.83722
2.83806
2.84463
2.85512
2.8657
2.8723
2.8756
2.8786
2.88332
2.88963
2.89608
2.90168
2.90639
2.91073
2.91508
2.91982
2.92474
2.92938
2.93332
2.93648
2.93913
2.94222
2.94834
2.95858
2.97057
2.98264
2.9943
3.00589
3.01742
3.02757
3.03601
3.044
3.0533
3.06349
3.07144
3.07747
3.08754
3.10406
3.12445
3.15131
3.18349
3.21833
3.25422
3.29136
3.32829
3.36298
3.39085
3.41005
3.42586
3.43915
3.4494
3.45384
3.45669
3.46129
3.47396
3.48888
3.49713
3.49724
3.49706
3.49791
3.50059
1
1
1
1
1
1
1
1
1
1
1
1
1
1
1
1
1
1
1
1
1
1
1
1
1
1
1
1
1
1
1
1
1
1
1
1
1
1
1
1
1
1
1
1
1
1
1
1
1
1
1
1
1
1
1
1
1
1
1
1
1
1
1
1
1
1
1
1
1
1
1
1
1
1
1
1
1
1
1
1
1
1
1
1
1
1
1
1
1
1
1
1
1
1
1
1
1
1
1
1
1
1
1
1
1
1
1
1
1
1
1
1
1
1
1
1
1
1
1
1
1
1
1
1
1
1
1
1
1
1.72913
2.7288
2.83296
2.8369
2.84742
2.85911
2.86724
2.87112
2.87285
2.87604
2.88154
2.88812
2.89403
2.89877
2.90289
2.90709
2.91161
2.91646
2.9211
2.92513
2.92839
2.93116
2.93396
2.93872
2.94766
2.95906
2.97102
2.98233
2.99277
3.00352
3.01448
3.02425
3.03226
3.03962
3.04786
3.05651
3.06391
3.0719
3.08567
3.10292
3.12252
3.14817
3.17938
3.21361
3.24855
3.28398
3.31879
3.35135
3.37821
3.39967
3.42025
3.43746
3.44921
3.4544
3.45637
3.45964
3.47042
3.48336
3.49105
3.49202
3.49373
3.49734
3.50177
1
1
1
1
1
1
1
1
1
1
1
1
1
1
1
1
1
1
1
1
1
1
1
1
1
1
1
1
1
1
1
1
1
1
1
1
1
1
1
1
1
1
1
1
1
1
1
1
1
1
1
1
1
1
1
1
1
1
1
1
1
1
1
1
1
1
1
1
1
1
1
1
1
1
1
1
1
1
1
1
1
1
1
1
1
1
1
1
1
1
1
1
1
1
1
1
1
1
1
1
1
1
1
1
1
1
1
1
1
1
1
1
1
1
1
1
1
1
1
1
1
1
1
1
1
1
1
1
1
1.48362
2.62223
2.83449
2.84014
2.85311
2.86227
2.86647
2.86767
2.86948
2.87389
2.88022
2.88636
2.8912
2.89507
2.89892
2.90323
2.90807
2.91285
2.91697
2.92032
2.92321
2.92614
2.93017
2.93741
2.94787
2.9595
2.97089
2.98119
2.99058
3.00063
3.01097
3.02034
3.02802
3.03489
3.04206
3.04889
3.05645
3.06798
3.08458
3.10175
3.12043
3.14476
3.17488
3.20845
3.2425
3.27625
3.30882
3.33913
3.36534
3.38953
3.41464
3.43552
3.44877
3.45467
3.45592
3.45797
3.46663
3.47713
3.48409
3.48647
3.49082
3.49684
3.50298
1
1
1
1
1
1
1
1
1
1
1
1
1
1
1
1
1
1
1
1
1
1
1
1
1
1
1
1
1
1
1
1
1
1
1
1
1
1
1
1
1
1
1
1
1
1
1
1
1
1
1
1
1
1
1
1
1
1
1
1
1
1
1
1
1
1
1
1
1
1
1
1
1
1
1
1
1
1
1
1
1
1
1
1
1
1
1
1
1
1
1
1
1
1
1
1
1
1
1
1
1
1
1
1
1
1
1
1
1
1
1
1
1
1
1
1
1
1
1
1
1
1
1
1
1
1
1
1
1
1.20152
2.48022
2.83762
2.84842