/*--------------------------------*- C++ -*----------------------------------*\
  =========                 |
  \\      /  F ield         | OpenFOAM: The Open Source CFD Toolbox
   \\    /   O peration     | Website:  https://openfoam.org
    \\  /    A nd           | Version:  7
     \\/     M anipulation  |
\*---------------------------------------------------------------------------*/
FoamFile
{
    version     2.0;
    format      ascii;
    class       volScalarField;
    location    "1.3";
    object      rho;
}
// * * * * * * * * * * * * * * * * * * * * * * * * * * * * * * * * * * * * * //

dimensions      [1 -3 0 0 0 0 0];

internalField   nonuniform List<scalar> 
4032
(
1.40001
1.40001
1.40001
1.40001
1.40001
1.40001
1.40001
1.40001
1.40001
1.40001
1.40001
1.40001
1.7784
4.67757
5.53261
5.5918
5.65595
5.69796
5.73068
5.7624
5.78575
5.78831
5.76576
5.75917
1.40001
1.40001
1.40001
1.40001
1.40001
1.40001
1.40001
1.40001
1.40001
1.40001
1.40001
1.40001
1.74292
4.61258
5.5249
5.58977
5.64848
5.68771
5.72042
5.75152
5.77305
5.77057
5.74399
5.73468
1.40001
1.40001
1.40001
1.40001
1.40001
1.40001
1.40001
1.40001
1.40001
1.40001
1.40001
1.40001
1.66688
4.50549
5.52579
5.57405
5.6278
5.66476
5.69942
5.73276
5.75466
5.74633
5.71205
5.69739
1.40001
1.40001
1.40001
1.40001
1.40001
1.40001
1.40001
1.40001
1.40001
1.40001
1.40001
1.40001
1.55056
4.34309
5.53046
5.55707
5.60464
5.63741
5.67138
5.70408
5.72342
5.70675
5.66149
5.63776
1.40001
1.40001
1.40001
1.40001
1.40001
1.40001
1.40001
1.40001
1.40001
1.40001
1.40001
1.40001
1.41473
4.06731
5.51778
5.52951
5.55945
5.58182
5.60977
5.6393
5.65721
5.63956
5.58865
5.56705
1.40001
1.40001
1.40001
1.40001
1.40001
1.40001
1.40001
1.40001
1.40001
1.40001
1.40001
1.40001
1.4002
3.65946
5.42583
5.47665
5.50552
5.52903
5.55334
5.57635
5.58533
5.55751
5.49503
5.44174
1.40001
1.40001
1.40001
1.40001
1.40001
1.40001
1.40001
1.40001
1.40001
1.40001
1.40001
1.40001
1.40001
3.17298
5.29339
5.43699
5.45824
5.47347
5.48388
5.49134
5.47767
5.4164
5.32425
5.2686
1.40001
1.40001
1.40001
1.40001
1.40001
1.40001
1.40001
1.40001
1.40001
1.40001
1.40001
1.40001
1.40001
2.62793
5.11466
5.4251
5.42495
5.42674
5.41847
5.40404
5.36753
5.28977
5.16061
5.07889
1.40001
1.40001
1.40001
1.40001
1.40001
1.40001
1.40001
1.40001
1.40001
1.40001
1.40001
1.40001
1.40001
2.03421
4.86524
5.4305
5.39512
5.38707
5.35641
5.31215
5.23704
5.09882
4.73532
3.86005
1.40001
1.40001
1.40001
1.40001
1.40001
1.40001
1.40001
1.40001
1.40001
1.40001
1.40001
1.40001
1.40001
1.50017
4.38705
5.43954
5.37164
5.34275
5.28461
5.21003
5.09145
4.87833
4.50894
3.59307
1.40001
1.40001
1.40001
1.40001
1.40001
1.40001
1.40001
1.40001
1.40001
1.40001
1.40001
1.40001
1.40001
1.40158
3.58892
5.22012
5.26919
5.25749
5.19517
5.09934
4.95523
4.7105
4.33023
3.5153
1.40001
1.40001
1.40001
1.40001
1.40001
1.40001
1.40001
1.40001
1.40001
1.40001
1.40001
1.40001
1.40001
1.4
2.6282
4.99053
5.23698
5.20641
5.13816
5.01443
4.84
4.59037
4.17324
3.53001
1.40001
1.40001
1.40001
1.40001
1.40001
1.40001
1.40001
1.40001
1.40001
1.40001
1.40001
1.40001
1.40001
1.4
1.74168
4.64187
5.28223
5.17997
5.06596
4.91604
4.7352
4.48529
4.08408
3.58067
1.40001
1.40001
1.40001
1.40001
1.40001
1.40001
1.40001
1.40001
1.40001
1.40001
1.40001
1.40001
1.40001
1.4
1.41979
3.78361
5.12578
5.04866
4.95074
4.80686
4.64691
4.39002
4.03499
3.62388
1.40001
1.40001
1.40001
1.40001
1.40001
1.40001
1.40001
1.40001
1.40001
1.40001
1.40001
1.40001
1.40001
1.40001
1.39995
2.59471
4.93417
5.00897
4.91558
4.77113
4.58949
4.3412
4.03043
3.67828
1.40001
1.40001
1.40001
1.40001
1.40001
1.40001
1.40001
1.40001
1.40001
1.40001
1.40001
1.40001
1.40001
1.40001
1.39999
1.62189
4.32466
5.00642
4.86518
4.72923
4.54049
4.30804
4.03082
3.72045
1.40001
1.40001
1.40001
1.40001
1.40001
1.40001
1.40001
1.40001
1.40001
1.40001
1.40001
1.40001
1.40001
1.40001
1.4
1.40605
3.11057
4.81884
4.81243
4.70062
4.52867
4.30472
4.04381
3.76341
1.40001
1.40001
1.40001
1.40001
1.40001
1.40001
1.40001
1.40001
1.40001
1.40001
1.40001
1.40001
1.40001
1.40001
1.4
1.4
1.81729
4.40891
4.8712
4.70938
4.52786
4.30936
4.06493
3.80755
1.40001
1.40001
1.40001
1.40001
1.40001
1.40001
1.40001
1.40001
1.40001
1.40001
1.40001
1.40001
1.40001
1.40001
1.40001
1.4
1.42283
3.20944
4.73168
4.68147
4.51357
4.31242
4.08762
3.85111
1.40001
1.40001
1.40001
1.40001
1.40001
1.40001
1.40001
1.40001
1.40001
1.40001
1.40001
1.40001
1.40001
1.40001
1.40001
1.4
1.40008
1.85799
4.23052
4.73664
4.54003
4.33994
4.12687
3.90452
1.40001
1.40001
1.40001
1.40001
1.40001
1.40001
1.40001
1.40001
1.40001
1.40001
1.40001
1.40001
1.40001
1.40001
1.40001
1.40001
1.40001
1.42619
2.91297
4.58432
4.54047
4.35438
4.15821
3.95049
1.40001
1.40001
1.40001
1.40001
1.40001
1.40001
1.40001
1.40001
1.40001
1.40001
1.40001
1.40001
1.40001
1.40001
1.40001
1.40001
1.40001
1.40017
1.71785
3.88084
4.62414
4.42295
4.22341
4.01546
1.40001
1.40001
1.40001
1.40001
1.40001
1.40001
1.40001
1.40001
1.40001
1.40001
1.40001
1.40001
1.40001
1.40001
1.40001
1.40001
1.40001
1.40001
1.4122
2.4067
4.28827
4.46307
4.26014
4.06323
1.40001
1.40001
1.40001
1.40001
1.40001
1.40001
1.40001
1.40001
1.40001
1.40001
1.40001
1.40001
1.40001
1.40001
1.40001
1.40001
1.40001
1.40001
1.40008
1.53056
3.21642
4.41017
4.32769
4.14119
1.40001
1.40001
1.40001
1.40001
1.40001
1.40001
1.40001
1.40001
1.40001
1.40001
1.40001
1.40001
1.40001
1.40001
1.40001
1.40001
1.40001
1.40001
1.40001
1.40261
1.87989
3.78905
4.38638
4.23803
1.40001
1.40001
1.40001
1.40001
1.40001
1.40001
1.40001
1.40001
1.40001
1.40001
1.40001
1.40001
1.40001
1.40001
1.40001
1.40001
1.40001
1.40001
1.40001
1.40002
1.42876
2.37886
4.07625
4.28915
1.40001
1.40001
1.40001
1.40001
1.40001
1.40001
1.40001
1.40001
1.40001
1.40001
1.40001
1.40001
1.40001
1.40001
1.40001
1.40001
1.40001
1.40001
1.40001
1.40001
1.40032
1.52295
2.89514
4.15047
1.40001
1.40001
1.40001
1.40001
1.40001
1.40001
1.40001
1.40001
1.40001
1.40001
1.40001
1.40001
1.40001
1.40001
1.40001
1.40001
1.40001
1.40001
1.40001
1.40001
1.40001
1.40275
1.70703
3.3059
1.40001
1.40001
1.40001
1.40001
1.40001
1.40001
1.40001
1.40001
1.40001
1.40001
1.40001
1.40001
1.40001
1.40001
1.40001
1.40001
1.40001
1.40001
1.40001
1.40001
1.40001
1.40002
1.41321
1.96017
1.40001
1.40001
1.40001
1.40001
1.40001
1.40001
1.40001
1.40001
1.40001
1.40001
1.40001
1.40001
1.40001
1.40001
1.40001
1.40001
1.40001
1.40001
1.40001
1.40001
1.40001
1.40001
1.40012
1.44096
1.40001
1.40001
1.40001
1.40001
1.40001
1.40001
1.40001
1.40001
1.40001
1.40001
1.40001
1.40001
1.40001
1.40001
1.40001
1.40001
1.40001
1.40001
1.40001
1.40001
1.40001
1.40001
1.40001
1.40059
1.40001
1.40001
1.40001
1.40001
1.40001
1.40001
1.40001
1.40001
1.40001
1.40001
1.40001
1.40001
1.40001
1.40001
1.40001
1.40001
1.40001
1.40001
1.40001
1.40001
1.40001
1.40001
1.40001
1.40001
1.40001
1.40001
1.40001
1.40001
1.40001
1.40001
1.40001
1.40001
1.40001
1.40001
1.40001
1.40001
1.40001
1.40001
1.40001
1.40001
1.40001
1.40001
1.40001
1.40001
1.40001
1.40001
1.40001
1.40001
1.40001
1.40001
1.40001
1.40001
1.40001
1.40001
1.40001
1.40001
1.40001
1.40001
1.40001
1.40001
1.40001
1.40001
1.40001
1.40001
1.40001
1.40001
1.40001
1.40001
1.40001
1.40001
1.40001
1.40001
1.40001
1.40001
1.40001
1.40001
1.40001
1.40001
1.40001
1.40001
1.40001
1.40001
1.40001
1.40001
1.40001
1.40001
1.40001
1.40001
1.40001
1.40001
1.40001
1.40001
1.40001
1.40001
1.40001
1.40001
1.40001
1.40001
1.40001
1.40001
1.40001
1.40001
1.40001
1.40001
1.40001
1.40001
1.40001
1.40001
1.40001
1.40001
1.40001
1.40001
1.40001
1.40001
1.40001
1.40001
1.40001
1.40001
1.40001
1.40001
1.40001
1.40001
1.40001
1.40001
1.40001
1.40001
1.40001
1.40001
1.40001
1.40001
1.40001
1.40001
1.40001
1.40001
1.40001
1.40001
1.40001
1.40001
1.40001
1.40001
1.40001
1.40001
1.40001
1.40001
1.40001
1.40001
1.40001
1.40001
1.40001
1.40001
1.40001
1.40001
1.40001
1.40001
1.40001
1.40001
1.40001
1.40001
1.40001
1.40001
1.40001
1.40001
1.40001
1.40001
1.40001
1.40001
1.40001
1.40001
1.40001
1.40001
1.40001
1.40001
1.40001
1.40001
1.40001
1.40001
1.40001
1.40001
1.40001
1.40001
1.40001
1.40001
1.40001
1.40001
1.40001
1.40001
1.40001
1.40001
1.40001
1.40001
1.40001
1.40001
1.40001
1.40001
1.40001
1.40001
1.40001
1.40001
1.40001
1.40001
1.40001
1.40001
1.40001
1.40001
1.40001
1.40001
1.40001
1.40001
1.40001
1.40001
1.40001
1.40001
1.40001
1.40001
1.40001
1.40001
1.26406
0.533104
0.23368
0.175911
0.201223
0.280337
0.368105
0.449398
0.550715
0.624996
0.69273
0.755068
0.813225
0.86164
0.899239
0.937517
0.950619
0.939946
0.936625
0.937354
0.935617
0.930937
0.92891
0.930466
0.934057
0.936789
0.939759
0.945039
0.951098
0.952432
0.951166
0.943312
0.936282
0.933516
0.931839
0.933592
0.942991
0.946698
0.942568
0.931746
0.914351
0.901695
0.898021
0.895056
0.891186
0.88699
0.882955
0.878303
0.872577
0.864645
0.854169
0.846509
0.841661
0.836873
0.831628
0.825451
0.818293
0.808872
0.805722
0.813187
0.843742
0.91969
1.04263
1.21836
1.41878
1.62259
1.7907
1.92968
2.03708
2.11041
2.15273
2.17203
2.17041
2.15494
2.1371
2.1017
2.05012
1.98165
1.90932
1.84423
1.78795
1.74622
1.71544
1.69039
1.66786
1.64731
1.62715
1.60454
1.57206
1.53248
1.5172
1.50684
1.49473
1.48125
1.46936
1.44905
1.91427
1.20646
0.875053
0.627722
0.558918
0.57711
0.564061
0.528045
0.523507
0.539688
0.573137
0.63079
0.709703
0.777269
0.818905
0.870075
0.928285
0.932773
0.93633
0.946202
0.954295
0.952097
0.94974
0.952008
0.954663
0.956354
0.96064
0.968168
0.974627
0.974833
0.97241
0.9654
0.95901
0.955737
0.951947
0.950746
0.9543
0.955499
0.951198
0.943908
0.934334
0.922108
0.914471
0.911279
0.907824
0.903095
0.89781
0.892123
0.886075
0.878886
0.868992
0.857526
0.848325
0.842194
0.837582
0.833221
0.831059
0.841284
0.880132
0.956862
1.07558
1.19486
1.30036
1.38091
1.43567
1.48039
1.54326
1.62359
1.7158
1.77899
1.81902
1.85456
1.88649
1.9163
1.94241
1.96383
1.96878
1.95075
1.92537
1.88969
1.85288
1.81372
1.77928
1.75319
1.73086
1.71003
1.68987
1.66851
1.64125
1.60726
1.58835
1.57349
1.55593
1.53717
1.52547
1.50296
2.45106
1.74968
1.36806
1.102
0.911881
0.826119
0.765877
0.660368
0.612372
0.617544
0.621896
0.649947
0.704172
0.756699
0.791594
0.827804
0.901673
0.946693
0.964744
0.991242
1.01941
1.01882
1.01002
1.01308
1.02076
1.02133
1.02376
1.0269
1.02512
1.01987
1.01184
1.00239
0.999295
0.99794
0.995169
0.993838
0.994604
0.992833
0.988163
0.981982
0.974686
0.965177
0.953884
0.945992
0.940261
0.934131
0.927456
0.920821
0.915085
0.909389
0.901168
0.888894
0.876485
0.869292
0.872863
0.888843
0.940529
1.03159
1.16359
1.30366
1.40057
1.45315
1.50757
1.51971
1.51045
1.50205
1.50271
1.50494
1.52011
1.54657
1.58059
1.62423
1.68586
1.76297
1.83569
1.89703
1.94054
1.96084
1.95755
1.94656
1.92906
1.90126
1.88726
1.87925
1.87138
1.85977
1.84227
1.81716
1.78757
1.74944
1.71694
1.69347
1.66972
1.64534
1.62402
1.5839
2.79462
2.22459
1.81141
1.50767
1.26865
1.12007
1.01879
0.907983
0.845191
0.813688
0.765861
0.728894
0.733009
0.730566
0.734367
0.749389
0.803965
0.88139
0.928104
0.958064
0.999507
1.01098
1.01104
1.02363
1.05632
1.07325
1.08022
1.08646
1.08599
1.0797
1.06514
1.05081
1.0457
1.0434
1.03992
1.03546
1.03289
1.03242
1.03098
1.02662
1.0214
1.015
1.00542
0.994148
0.982876
0.972772
0.964482
0.957201
0.951625
0.946187
0.939785
0.931676
0.934624
0.954101
1.01859
1.12093
1.26262
1.4019
1.50047
1.55099
1.58503
1.59953
1.59259
1.57849
1.56094
1.54965
1.53926
1.52731
1.51425
1.50083
1.48734
1.46633
1.45591
1.47042
1.50776
1.56377
1.63802
1.7257
1.79927
1.86206
1.89432
1.90311
1.90932
1.90668
1.90176
1.895
1.88297
1.87764
1.87535
1.86599
1.85397
1.84069
1.82102
1.79426
1.77413
1.73258
3.02304
2.54941
2.17192
1.84432
1.59562
1.4177
1.26457
1.13242
1.04267
0.969303
0.903856
0.848656
0.824803
0.795682
0.763093
0.767137
0.777071
0.791589
0.819972
0.853442
0.902492
0.950585
0.979097
1.00073
1.0394
1.06513
1.07201
1.08377
1.1024
1.10572
1.1001
1.09689
1.09617
1.09333
1.08602
1.07661
1.06625
1.05948
1.05339
1.04707
1.04481
1.04278
1.03864
1.03276
1.02601
1.01843
1.00904
0.999307
0.990037
0.980672
0.98076
0.998458
1.06775
1.19451
1.35741
1.50964
1.60054
1.64479
1.67212
1.67157
1.65899
1.63559
1.60732
1.5969
1.59433
1.58011
1.5631
1.54478
1.52347
1.50495
1.48868
1.47031
1.43956
1.41408
1.40192
1.39361
1.39733
1.41554
1.45431
1.50787
1.57453
1.64032
1.69296
1.73409
1.76923
1.80076
1.829
1.85951
1.88277
1.88233
1.87393
1.86607
1.85274
1.82543
1.80818
1.79234
3.17699
2.78335
2.43452
2.12309
1.87458
1.66843
1.49433
1.3528
1.25752
1.16428
1.06816
1.0044
0.96561
0.924676
0.870141
0.850076
0.831408
0.811159
0.794504
0.796397
0.807745
0.83366
0.875124
0.916605
0.966401
1.01409
1.0379
1.05874
1.09019
1.10009
1.09599
1.0978
1.10906
1.11309
1.11046
1.10531
1.09655
1.08262
1.06913
1.06075
1.05691
1.05454
1.05228
1.04996
1.04629
1.03815
1.02848
1.01992
1.01761
1.03154
1.09264
1.21672
1.39321
1.56631
1.6493
1.70277
1.73569
1.73605
1.72327
1.69455
1.65358
1.62824
1.61871
1.60394
1.57958
1.56218
1.55323
1.54042
1.52552
1.51446
1.50318
1.48522
1.45576
1.42039
1.39589
1.38254
1.37598
1.37172
1.36802
1.36316
1.36362
1.36601
1.37628
1.39365
1.42017
1.46621
1.53074
1.59705
1.66254
1.72031
1.75161
1.7743
1.78377
1.77645
1.77855
1.78423
3.29957
2.96298
2.63605
2.33294
2.10225
1.89866
1.71134
1.5516
1.43648
1.33362
1.23781
1.16609
1.10923
1.04615
0.97475
0.926212
0.893152
0.85635
0.815572
0.81013
0.812649
0.815912
0.823288
0.840633
0.867525
0.905317
0.945644
0.978959
1.02268
1.06053
1.07204
1.08608
1.10495
1.1128
1.11195
1.11041
1.10415
1.09232
1.08142
1.07469
1.07035
1.06695
1.06198
1.05471
1.04859
1.03969
1.03588
1.04872
1.10908
1.24415
1.4399
1.62468
1.70943
1.74655
1.76316
1.76895
1.76603
1.74884
1.71446
1.67859
1.65427
1.63674
1.61624
1.59269
1.56482
1.54656
1.53824
1.52827
1.51853
1.51285
1.50943
1.4987
1.47975
1.44963
1.40986
1.38199
1.37311
1.3663
1.35755
1.34702
1.33681
1.32824
1.31882
1.30519
1.28029
1.2671
1.27204
1.29099
1.32071
1.35909
1.40254
1.44465
1.48679
1.52944
1.56464
1.62722
3.39725
3.0953
2.79148
2.52068
2.29421
2.08589
1.8796
1.73807
1.61553
1.49786
1.37701
1.30568
1.24182
1.173
1.10259
1.05064
1.00842
0.960024
0.90016
0.885483
0.872229
0.849509
0.835956
0.837833
0.835166
0.835076
0.841769
0.865554
0.904832
0.95865
1.00914
1.0417
1.07426
1.10167
1.10577
1.10557
1.10228
1.09312
1.08697
1.08267
1.07728
1.07288
1.06584
1.05574
1.04551
1.05179
1.099
1.23087
1.43428
1.64988
1.76158
1.82163
1.83312
1.81869
1.78986
1.75825
1.73991
1.72187
1.70021
1.68415
1.66475
1.6397
1.61288
1.58714
1.55832
1.53378
1.52399
1.51532
1.50907
1.50948
1.50954
1.49958
1.4854
1.46302
1.41943
1.38039
1.36888
1.36132
1.35048
1.34001
1.33029
1.32241
1.3169
1.31024
1.29373
1.25581
1.23125
1.2228
1.21685
1.21437
1.21686
1.22623
1.23744
1.25225
1.27292
1.32956
3.47685
3.20276
2.92252
2.66866
2.45156
2.24309
2.0421
1.8946
1.76439
1.64078
1.52147
1.44498
1.36769
1.28506
1.20286
1.15774
1.11416
1.06243
1.00049
0.967664
0.941711
0.906246
0.864758
0.856338
0.849228
0.837266
0.838669
0.844695
0.853707
0.871765
0.902087
0.94108
0.983473
1.03051
1.06011
1.07227
1.08021
1.08621
1.08614
1.08455
1.08134
1.07812
1.07119
1.06829
1.09168
1.19187
1.40515
1.63181
1.75656
1.8419
1.88399
1.88375
1.86335
1.81506
1.75377
1.72166
1.70572
1.69596
1.68389
1.67278
1.6577
1.63735
1.61711
1.59443
1.5623
1.52771
1.51218
1.50532
1.50108
1.50458
1.50914
1.49837
1.48416
1.46563
1.43144
1.38585
1.36266
1.35386
1.34606
1.33834
1.33229
1.32952
1.32626
1.32018
1.30619
1.26976
1.23226
1.21709
1.20815
1.20284
1.20173
1.20345
1.20748
1.20678
1.20356
1.2013
3.54458
3.292
3.03362
2.79683
2.59135
2.38092
2.18622
2.04171
1.91049
1.77336
1.65431
1.56962
1.48469
1.40409
1.32087
1.26516
1.21293
1.15698
1.09524
1.06385
1.03677
0.999441
0.946308
0.926197
0.911466
0.885588
0.8622
0.862528
0.864555
0.856161
0.853233
0.859772
0.879012
0.911393
0.956622
0.996222
1.02401
1.0562
1.07231
1.07476
1.07405
1.08025
1.10872
1.20544
1.37575
1.61447
1.79062
1.86571
1.90049
1.91312
1.9041
1.87903
1.84211
1.78281
1.71779
1.70331
1.69716
1.67902
1.6643
1.65637
1.65084
1.6401
1.62506
1.6042
1.5693
1.52948
1.50712
1.49797
1.49648
1.50175
1.49885
1.48976
1.47949
1.46589
1.44394
1.40627
1.36677
1.35166
1.34584
1.34434
1.34717
1.34303
1.33576
1.32734
1.31391
1.2881
1.24923
1.22121
1.21017
1.2047
1.20155
1.20314
1.20655
1.20651
1.20668
1.20064
3.60874
3.37221
3.13335
2.91114
2.70976
2.50648
2.32641
2.17672
2.03731
1.89228
1.78549
1.69323
1.60167
1.50656
1.42851
1.36978
1.31251
1.25632
1.18828
1.14969
1.11698
1.07683
1.02465
0.996495
0.976781
0.947341
0.904702
0.890453
0.8873
0.873153
0.857224
0.856242
0.857664
0.860623
0.866748
0.887365
0.92215
0.969731
1.01328
1.04151
1.06147
1.12261
1.33828
1.60843
1.77054
1.92926
1.93662
1.93039
1.91912
1.91524
1.88881
1.84577
1.80452
1.764
1.7149
1.694
1.6838
1.66823
1.65532
1.64933
1.6486
1.63929
1.62506
1.60752
1.58446
1.55552
1.52125
1.4981
1.4892
1.48531
1.47909
1.4725
1.46753
1.46023
1.45092
1.43426
1.39711
1.36519
1.35558
1.34856
1.34174
1.33489
1.32684
1.31686
1.30762
1.29654
1.27887
1.2512
1.22761
1.22065
1.2196
1.21999
1.21861
1.21721
1.21513
1.20589
3.67782
3.45159
3.22578
3.01902
2.82215
2.62199
2.45265
2.30547
2.15903
2.01145
1.90787
1.80812
1.71069
1.6142
1.54119
1.46808
1.40198
1.34744
1.28484
1.23795
1.20235
1.16345
1.10598
1.07173
1.05028
1.02148
0.976245
0.949313
0.941964
0.925673
0.892434
0.870734
0.870375
0.863242
0.849448
0.849085
0.855986
0.879157
0.930641
0.981115
1.10589
1.37536
1.70977
1.84619
1.91764
1.97191
1.96561
1.95379
1.93247
1.89938
1.86178
1.82432
1.79508
1.76468
1.72947
1.698
1.68116
1.66946
1.65895
1.65317
1.64926
1.63769
1.6207
1.60549
1.59377
1.58056
1.55488
1.51167
1.48326
1.47399
1.46681
1.46101
1.45958
1.46175
1.45769
1.4501
1.43609
1.40043
1.3639
1.34787
1.33792
1.32973
1.32209
1.31279
1.30381
1.29914
1.2944
1.28322
1.25364
1.22263
1.2147
1.21138
1.20809
1.20659
1.20823
1.20563
3.73547
3.52059
3.3095
3.11272
2.9202
2.73002
2.57039
2.42535
2.26851
2.12461
2.02309
1.92326
1.81716
1.71257
1.64392
1.56708
1.49375
1.43723
1.38304
1.32332
1.27924
1.24191
1.18924
1.14549
1.12019
1.09159
1.04546
1.0058
0.99166
0.97283
0.939599
0.901727
0.891591
0.88032
0.859332
0.852669
0.855616
0.86475
0.902235
1.10046
1.387
1.6898
1.76952
1.81857
1.86272
1.89544
1.90265
1.88757
1.85484
1.8289
1.82221
1.81348
1.79954
1.77878
1.76088
1.74242
1.71928
1.6964
1.6759
1.66025
1.64539
1.62709
1.61085
1.60234
1.60087
1.59316
1.57628
1.53783
1.48687
1.46699
1.4603
1.45556
1.45328
1.46219
1.46187
1.45662
1.44878
1.4313
1.39093
1.35017
1.33023
1.32058
1.31346
1.30916
1.30873
1.30748
1.30187
1.29395
1.27586
1.2338
1.20925
1.20422
1.2008
1.1982
1.19765
1.20018
3.80492
3.59349
3.39373
3.20378
3.01288
2.82968
2.67416
2.52982
2.37733
2.24166
2.13047
2.02515
1.91096
1.81591
1.7444
1.66918
1.58205
1.51467
1.47225
1.41288
1.35964
1.32262
1.27018
1.21253
1.18431
1.1581
1.11883
1.07436
1.05516
1.03576
1.00407
0.957099
0.939139
0.928038
0.905919
0.889099
0.90142
0.975403
1.18522
1.46343
1.67101
1.76299
1.7426
1.72334
1.71988
1.72031
1.72672
1.72793
1.72772
1.73966
1.75522
1.77062
1.77824
1.76851
1.75665
1.75373
1.74067
1.71208
1.68626
1.65561
1.63567
1.62163
1.61374
1.6156
1.61424
1.60362
1.58783
1.55788
1.50444
1.46678
1.45787
1.45157
1.4455
1.4428
1.45149
1.4539
1.44724
1.43412
1.40881
1.36785
1.33124
1.31944
1.31419
1.31422
1.32114
1.31687
1.30828
1.29852
1.28196
1.24715
1.20839
1.19776
1.19449
1.19224
1.19153
1.19848
3.86098
3.65924
3.47035
3.28523
3.09573
2.92563
2.77678
2.63021
2.4799
2.35453
2.23878
2.1273
2.01179
1.91927
1.8401
1.76327
1.67901
1.60606
1.56057
1.49957
1.43528
1.39842
1.35487
1.29363
1.2527
1.22148
1.18064
1.13274
1.11169
1.09407
1.06561
1.02051
0.988896
0.975708
0.956495
0.97687
1.1038
1.35392
1.6525
1.76567
1.79151
1.77105
1.72874
1.68533
1.6635
1.63975
1.62338
1.61193
1.60397
1.60671
1.61547
1.62744
1.64434
1.66956
1.69478
1.71184
1.70717
1.68632
1.64393
1.62179
1.61713
1.61451
1.61921
1.62629
1.6214
1.61068
1.59494
1.56899
1.52988
1.48892
1.46678
1.45125
1.43905
1.4317
1.42666
1.4252
1.42521
1.41661
1.40422
1.38204
1.34992
1.33013
1.3234
1.3178
1.30953
1.30035
1.29138
1.28185
1.27102
1.25071
1.2143
1.19453
1.19074
1.1887
1.19343
1.2101
3.94464
3.74881
3.56102
3.37802
3.19801
3.03499
2.87892
2.72501
2.58521
2.46804
2.34678
2.22362
2.10497
2.0257
1.94333
1.85949
1.76305
1.69758
1.64618
1.58621
1.52022
1.4731
1.42699
1.36173
1.31663
1.289
1.25451
1.20294
1.16964
1.14665
1.12012
1.07981
1.04757
1.05008
1.10668
1.32583
1.62811
1.84874
1.94578
1.9088
1.84758
1.79164
1.74198
1.70164
1.6622
1.63059
1.61764
1.6072
1.59058
1.56332
1.54721
1.53869
1.53632
1.54393
1.55451
1.56627
1.58049
1.57846
1.55858
1.54952
1.55399
1.55832
1.5611
1.56382
1.56736
1.57292
1.57324
1.56483
1.54009
1.50925
1.47752
1.45469
1.44133
1.42771
1.4176
1.41467
1.40886
1.39343
1.38364
1.37656
1.36609
1.34981
1.33207
1.31671
1.30428
1.2936
1.28233
1.2688
1.25465
1.23993
1.21897
1.19944
1.19559
1.19624
1.20335
1.20126
4.03545
3.84179
3.65377
3.46971
3.2982
3.1412
2.98734
2.82837
2.69521
2.57314
2.45169
2.32292
2.21261
2.128
2.03881
1.95056
1.85912
1.79808
1.73478
1.66774
1.59595
1.55113
1.50524
1.44198
1.38725
1.35215
1.3161
1.27255
1.23738
1.2047
1.17589
1.13487
1.14741
1.26356
1.55495
1.88063
2.06506
2.09929
2.06037
1.96366
1.86995
1.82142
1.7865
1.7545
1.72366
1.70256
1.6856
1.66036
1.62605
1.58423
1.54291
1.52257
1.51669
1.50833
1.50309
1.5018
1.49448
1.48184
1.45549
1.43357
1.42281
1.42824
1.4471
1.46681
1.48039
1.49027
1.50201
1.50787
1.50129
1.48694
1.46319
1.45291
1.44736
1.43634
1.42297
1.41392
1.40148
1.38532
1.3779
1.37278
1.36422
1.35557
1.33778
1.31371
1.29804
1.28698
1.27505
1.26069
1.24671
1.23629
1.22356
1.20141
1.18901
1.18695
1.1876
1.18618
4.12547
3.92967
3.7398
3.5563
3.39257
3.24006
3.08225
2.92304
2.79594
2.67732
2.55492
2.41349
2.31202
2.22433
2.13558
2.03779
1.95199
1.88822
1.81645
1.74889
1.67575
1.62408
1.57389
1.51052
1.46045
1.42677
1.38655
1.33759
1.29244
1.26429
1.24657
1.29304
1.51486
1.84031
2.15189
2.2713
2.23925
2.16659
2.09288
2.01539
1.94209
1.89732
1.86959
1.84139
1.811
1.78217
1.75172
1.71365
1.66878
1.62431
1.57987
1.5415
1.52086
1.50512
1.49424
1.48816
1.47774
1.4642
1.45155
1.41656
1.36682
1.34364
1.33957
1.34275
1.34939
1.35871
1.36942
1.38451
1.40698
1.41541
1.40636
1.39986
1.40294
1.4013
1.3887
1.38264
1.38148
1.38495
1.38587
1.38
1.36448
1.34533
1.32537
1.30364
1.29155
1.28227
1.26918
1.25655
1.24721
1.23982
1.22862
1.20547
1.17731
1.17059
1.16975
1.16801
4.20263
4.03224
3.83594
3.65908
3.49369
3.33929
3.18624
3.03656
2.89634
2.76817
2.64317
2.51714
2.41756
2.32077
2.22373
2.11925
2.04759
1.97988
1.90614
1.8236
1.75035
1.70463
1.65051
1.58704
1.52746
1.49241
1.4514
1.40617
1.35994
1.36963
1.48312
1.79795
2.18293
2.3418
2.42063
2.38975
2.31631
2.22751
2.15314
2.08779
2.02351
1.96932
1.94314
1.91838
1.89198
1.86382
1.82778
1.78019
1.72444
1.66608
1.61975
1.59319
1.57042
1.54579
1.52308
1.50525
1.48909
1.47514
1.45974
1.43681
1.39492
1.34515
1.32274
1.31218
1.29822
1.28726
1.28542
1.29008
1.29967
1.30136
1.30044
1.29108
1.28714
1.29617
1.30445
1.31364
1.32892
1.34504
1.35765
1.35624
1.34484
1.32482
1.31531
1.30676
1.2954
1.27809
1.26389
1.25752
1.25275
1.24585
1.23152
1.20202
1.16731
1.15563
1.15363
1.15243
4.1438
4.10771
3.93893
3.75319
3.59553
3.44576
3.28576
3.13501
3.00332
2.87423
2.73618
2.61529
2.51697
2.41689
2.31789
2.21368
2.14024
2.06399
1.98743
1.90413
1.83431
1.78418
1.72739
1.65787
1.60178
1.56152
1.51881
1.47871
1.5468
1.79389
2.18502
2.46924
2.61827
2.59
2.52585
2.43817
2.35373
2.27709
2.21912
2.16551
2.10341
2.05322
2.02212
1.99287
1.96259
1.93038
1.89208
1.8428
1.78538
1.73007
1.68432
1.64836
1.61807
1.58855
1.56032
1.5363
1.51515
1.49702
1.48081
1.46126
1.42953
1.37817
1.328
1.30462
1.28837
1.27592
1.27047
1.26755
1.26449
1.25649
1.246
1.22938
1.20584
1.20181
1.20576
1.21148
1.22532
1.25438
1.29302
1.31396
1.3141
1.29928
1.27569
1.26318
1.25967
1.25815
1.26258
1.26922
1.2662
1.25663
1.2382
1.20292
1.16625
1.15131
1.14736
1.1448
3.54967
4.10377
4.05704
3.88055
3.69587
3.53809
3.38991
3.24451
3.10362
2.96392
2.82477
2.72057
2.62258
2.51735
2.39356
2.29837
2.23544
2.15808
2.07881
1.98298
1.91953
1.86563
1.80332
1.73619
1.67106
1.63111
1.64249
1.76697
2.1663
2.59608
2.82814
2.81804
2.76341
2.65524
2.54726
2.46566
2.39423
2.33583
2.29778
2.26263
2.21543
2.15477
2.09796
2.05266
2.01367
1.97875
1.94328
1.90224
1.85428
1.80473
1.75786
1.71307
1.67092
1.63182
1.59609
1.56678
1.54438
1.52503
1.50792
1.49066
1.46953
1.43856
1.38977
1.33293
1.30057
1.28256
1.27006
1.26182
1.253
1.24137
1.22849
1.21449
1.19545
1.17527
1.16395
1.15952
1.15994
1.16391
1.176
1.1971
1.21375
1.21475
1.20382
1.20193
1.20968
1.22086
1.23063
1.23941
1.23751
1.23134
1.22178
1.20449
1.17315
1.15621
1.15198
1.14346
2.2022
3.68956
4.05872
4.00631
3.82732
3.64741
3.48988
3.34434
3.20866
3.07271
2.93091
2.81266
2.71369
2.61389
2.49512
2.39979
2.32409
2.24285
2.15969
2.07325
2.01287
1.95139
1.88097
1.81138
1.76227
1.82618
2.13788
2.58286
2.96137
3.08295
3.05024
2.95099
2.82697
2.70476
2.61179
2.54936
2.49644
2.44777
2.39432
2.33755
2.28234
2.22598
2.17232
2.12261
2.07409
2.0304
1.99392
1.95917
1.91987
1.87183
1.81866
1.77125
1.73323
1.69823
1.66054
1.62283
1.5924
1.56609
1.54278
1.52267
1.50043
1.47292
1.4356
1.39132
1.35923
1.33573
1.31299
1.29153
1.27082
1.25122
1.23306
1.21321
1.19047
1.17037
1.154
1.14719
1.14361
1.13778
1.13191
1.1284
1.12424
1.11835
1.11153
1.11146
1.12065
1.139
1.16847
1.19811
1.20873
1.20737
1.19936
1.17917
1.15448
1.13586
1.13056
1.1271
1.48398
2.40998
3.75817
4.01753
3.95851
3.77897
3.59544
3.45074
3.3164
3.175
3.03622
2.92316
2.82153
2.71312
2.58383
2.49983
2.42171
2.33993
2.24684
2.1626
2.1009
2.02914
1.9702
1.94758
2.09765
2.56353
3.05946
3.28043
3.31725
3.25032
3.14286
3.02437
2.90802
2.80481
2.71503
2.64154
2.58108
2.52815
2.47289
2.4132
2.35241
2.29418
2.23815
2.18208
2.12951
2.08699
2.05339
2.02168
1.98398
1.93415
1.86982
1.80273
1.76361
1.74009
1.71421
1.68513
1.65647
1.62776
1.59584
1.56158
1.52504
1.48606
1.4479
1.41662
1.39212
1.37436
1.36048
1.34613
1.3281
1.30422
1.27116
1.23026
1.19127
1.16265
1.15061
1.14272
1.135
1.12731
1.12033
1.11338
1.10442
1.08953
1.06134
1.0472
1.04842
1.0535
1.06754
1.098
1.13508
1.15036
1.14887
1.13413
1.12416
1.11802
1.11244
1.10981
1.4017
1.5365
2.56662
3.77594
3.97736
3.91387
3.73471
3.55514
3.41581
3.28611
3.15738
3.03047
2.91743
2.80739
2.69412
2.60614
2.51991
2.4266
2.32265
2.24505
2.19289
2.12433
2.20076
2.57281
3.11001
3.54329
3.66418
3.55995
3.42523
3.31158
3.18941
3.07531
2.98119
2.9011
2.82331
2.74638
2.67629
2.61168
2.54645
2.48292
2.42127
2.36019
2.3022
2.24971
2.1983
2.14654
2.10222
2.06738
2.03386
1.99622
1.94957
1.87738
1.79526
1.76063
1.7392
1.7154
1.69444
1.67535
1.65231
1.62435
1.59179
1.5502
1.49307
1.43414
1.40275
1.38897
1.37821
1.36879
1.35957
1.34497
1.31795
1.27767
1.22813
1.18583
1.16368
1.15117
1.13921
1.1268
1.11579
1.10754
1.0998
1.08503
1.05399
1.02086
1.01647
1.01593
1.01506
1.01752
1.03003
1.05249
1.06876
1.07012
1.06961
1.0764
1.08216
1.08683
1.40001
1.40358
1.58869
2.6568
3.78596
3.91767
3.86208
3.69921
3.53114
3.39268
3.26456
3.1413
3.03292
2.91469
2.78262
2.70001
2.62146
2.5316
2.42061
2.32308
2.32924
2.55042
3.11155
3.78355
3.94104
3.90202
3.79765
3.61441
3.45986
3.34911
3.24491
3.15596
3.08352
3.01198
2.93799
2.8606
2.77799
2.69629
2.62512
2.56204
2.5012
2.43619
2.36383
2.29751
2.24508
2.19965
2.15691
2.11581
2.07934
2.04573
2.00951
1.9573
1.87732
1.8043
1.75897
1.72814
1.71124
1.69726
1.68116
1.66151
1.63595
1.59703
1.53816
1.4797
1.44482
1.42254
1.40376
1.38473
1.36416
1.34284
1.32314
1.30159
1.26959
1.23217
1.20598
1.18806
1.17105
1.1528
1.13464
1.11737
1.10268
1.08808
1.05934
1.01786
1.00286
0.999374
0.996116
0.992457
0.990779
0.991473
0.995227
1.00172
1.00141
1.00353
1.01392
1.03552
1.40001
1.40002
1.40611
1.6266
2.72451
3.75091
3.86482
3.82687
3.67723
3.51415
3.37964
3.24971
3.12954
3.01908
2.89812
2.8082
2.70827
2.61815
2.52769
2.61882
3.07955
3.79246
4.24281
4.38062
4.28909
4.09969
3.89164
3.70534
3.54838
3.43715
3.35049
3.26863
3.19082
3.11724
3.03902
2.95551
2.87187
2.78573
2.70508
2.63645
2.57399
2.51147
2.44269
2.36715
2.29568
2.24114
2.20014
2.1649
2.131
2.0961
2.05814
2.00934
1.93692
1.85065
1.7873
1.76027
1.74544
1.73265
1.71693
1.69186
1.65432
1.60527
1.54766
1.50755
1.49073
1.47301
1.44849
1.42381
1.39963
1.37539
1.34758
1.31544
1.28548
1.25373
1.21411
1.18109
1.16128
1.1495
1.1426
1.13105
1.11311
1.09439
1.07064
1.02947
1.00187
0.995531
0.991247
0.985155
0.979018
0.974513
0.970443
0.966055
0.956836
0.943604
0.94196
0.958466
1.40001
1.40001
1.40005
1.40863
1.65328
2.76001
3.65892
3.83566
3.80717
3.66624
3.49781
3.35839
3.24209
3.12181
3.00431
2.90515
2.8173
2.77877
3.02107
3.77898
4.48011
4.7796
4.6679
4.50829
4.32556
4.13867
3.9862
3.84241
3.69717
3.56932
3.46415
3.37145
3.28606
3.20313
3.11731
3.02759
2.93996
2.8597
2.78354
2.71167
2.64623
2.58362
2.51679
2.44434
2.36551
2.29084
2.23589
2.19986
2.17314
2.13875
2.09128
2.03797
1.96909
1.88663
1.83067
1.80195
1.77647
1.74941
1.72874
1.70712
1.67463
1.62559
1.57647
1.53611
1.50248
1.47055
1.43883
1.41326
1.392
1.37041
1.35264
1.34114
1.32447
1.29146
1.23723
1.18978
1.16578
1.15723
1.15147
1.14759
1.14132
1.12723
1.09939
1.05105
1.01194
1.00284
0.996879
0.988135
0.979392
0.972505
0.965845
0.958934
0.945151
0.917323
0.903785
0.90797
1.40001
1.40001
1.40001
1.40007
1.41045
1.67053
2.69203
3.60441
3.81911
3.78797
3.64625
3.48488
3.352
3.21415
3.1089
3.00705
3.11359
3.68886
4.59428
5.21884
5.21337
5.07238
4.81376
4.55843
4.35518
4.19029
4.07458
3.96583
3.84566
3.72056
3.59709
3.48214
3.37894
3.28194
3.18729
3.09743
3.01326
2.93355
2.85652
2.78156
2.70895
2.64298
2.58485
2.51202
2.42258
2.34379
2.28745
2.23366
2.19528
2.17279
2.14577
2.09645
2.02773
1.94178
1.85739
1.8176
1.80355
1.78704
1.75917
1.71855
1.68448
1.66715
1.63803
1.58753
1.53464
1.49004
1.45047
1.42268
1.40247
1.38617
1.37248
1.35444
1.32369
1.28137
1.24679
1.21334
1.19906
1.19136
1.18234
1.1688
1.14956
1.12375
1.08519
1.03884
1.0261
1.02568
1.0227
1.01163
1.00026
0.991375
0.981669
0.968631
0.945694
0.906402
0.886711
0.88688
1.40001
1.40001
1.40001
1.40001
1.40009
1.41114
1.65654
2.59099
3.57905
3.77502
3.7398
3.62308
3.45876
3.31176
3.22965