/*--------------------------------*- C++ -*----------------------------------*\
  =========                 |
  \\      /  F ield         | OpenFOAM: The Open Source CFD Toolbox
   \\    /   O peration     | Website:  https://openfoam.org
    \\  /    A nd           | Version:  7
     \\/     M anipulation  |
\*---------------------------------------------------------------------------*/
FoamFile
{
    version     2.0;
    format      ascii;
    class       volScalarField;
    location    "1.3";
    object      T;
}
// * * * * * * * * * * * * * * * * * * * * * * * * * * * * * * * * * * * * * //

dimensions      [0 0 0 1 0 0 0];

internalField   nonuniform List<scalar> 
4032
(
1
1
1
1
1
1
1
1
1
1
1
1
1.33808
2.52488
2.72173
2.74345
2.77183
2.8019
2.82669
2.84386
2.86223
2.89049
2.92262
2.94269
1
1
1
1
1
1
1
1
1
1
1
1
1.31472
2.51119
2.72043
2.7434
2.77096
2.80055
2.82512
2.8419
2.85983
2.88722
2.91859
2.93798
1
1
1
1
1
1
1
1
1
1
1
1
1.25102
2.47204
2.71553
2.74046
2.76887
2.7979
2.82206
2.83869
2.85633
2.88268
2.91299
2.93124
1
1
1
1
1
1
1
1
1
1
1
1
1.14112
2.39884
2.70633
2.73737
2.76822
2.79597
2.81828
2.83362
2.85005
2.87457
2.90328
2.91981
1
1
1
1
1
1
1
1
1
1
1
1
1.00846
2.30181
2.70032
2.73465
2.76309
2.78745
2.80672
2.82042
2.83599
2.85986
2.88738
2.90428
1
1
1
1
1
1
1
1
1
1
1
1
1.00006
2.18747
2.69065
2.72763
2.75297
2.77588
2.79357
2.80623
2.82005
2.84106
2.86447
2.87207
1
1
1
1
1
1
1
1
1
1
1
1
1
2.02792
2.67032
2.71476
2.7385
2.75961
2.77512
2.78558
2.79423
2.80679
2.82384
2.83131
1
1
1
1
1
1
1
1
1
1
1
1
1
1.79511
2.61001
2.68937
2.71695
2.73838
2.75284
2.76094
2.76436
2.77219
2.79183
2.82035
1
1
1
1
1
1
1
1
1
1
1
1
1
1.44948
2.48821
2.65981
2.68468
2.70831
2.72396
2.73043
2.72716
2.7184
2.68573
2.60463
1
1
1
1
1
1
1
1
1
1
1
1
1
1.0531
2.33621
2.65034
2.65377
2.67122
2.68624
2.69117
2.68298
2.65618
2.60881
2.46047
1
1
1
1
1
1
1
1
1
1
1
1
1
1.00066
2.13296
2.59824
2.62102
2.63833
2.64659
2.64625
2.63588
2.60223
2.54052
2.37094
1
1
1
1
1
1
1
1
1
1
1
1
1
0.999997
1.7422
2.50371
2.59969
2.61642
2.61689
2.60933
2.59111
2.55511
2.47829
2.33272
1
1
1
1
1
1
1
1
1
1
1
1
1
1
1.20688
2.34056
2.58834
2.58592
2.58309
2.57135
2.5498
2.51128
2.43436
2.32301
1
1
1
1
1
1
1
1
1
1
1
1
1
1
1.00982
2.14665
2.5417
2.53772
2.53846
2.52932
2.51141
2.46993
2.40212
2.313
1
1
1
1
1
1
1
1
1
1
1
1
1
1
1
1.68827
2.43498
2.51743
2.50797
2.49516
2.47473
2.43654
2.37874
2.30586
1
1
1
1
1
1
1
1
1
1
1
1
1
1
0.999997
1.11874
2.22968
2.48707
2.46987
2.45863
2.43724
2.40415
2.35596
2.29529
1
1
1
1
1
1
1
1
1
1
1
1
1
1
0.999999
1.00281
1.867
2.38549
2.44058
2.42642
2.4046
2.37302
2.33205
2.28213
1
1
1
1
1
1
1
1
1
1
1
1
1
1
1
1
1.22753
2.19508
2.41351
2.39406
2.37349
2.34406
2.30767
2.26561
1
1
1
1
1
1
1
1
1
1
1
1
1
1
1
1
1.01068
1.86263
2.32757
2.35793
2.34079
2.31576
2.28398
2.2475
1
1
1
1
1
1
1
1
1
1
1
1
1
1
1
1
1.00003
1.24439
2.12427
2.33446
2.31031
2.28996
2.26368
2.2317
1
1
1
1
1
1
1
1
1
1
1
1
1
1
1
1
1
1.0121
1.71893
2.22643
2.28013
2.26076
2.23931
2.21248
1
1
1
1
1
1
1
1
1
1
1
1
1
1
1
1
1
1.00006
1.16312
1.99736
2.2588
2.2364
2.21775
2.194
1
1
1
1
1
1
1
1
1
1
1
1
1
1
1
1
1
1
1.0053
1.4821
2.08895
2.21437
2.18784
2.16771
1
1
1
1
1
1
1
1
1
1
1
1
1
1
1
1
1
1
1.00003
1.062
1.77412
2.15201
2.16198
2.14709
1
1
1
1
1
1
1
1
1
1
1
1
1
1
1
1
1
1
1
1.00099
1.23682
1.92744
2.13758
2.12456
1
1
1
1
1
1
1
1
1
1
1
1
1
1
1
1
1
1
1
1
1.01239
1.44933
1.98554
2.10384
1
1
1
1
1
1
1
1
1
1
1
1
1
1
1
1
1
1
1
1
1.0001
1.05635
1.62792
2.00034
1
1
1
1
1
1
1
1
1
1
1
1
1
1
1
1
1
1
1
1
1
1.00099
1.14596
1.74102
1
1
1
1
1
1
1
1
1
1
1
1
1
1
1
1
1
1
1
1
1
1
1.00521
1.26025
1
1
1
1
1
1
1
1
1
1
1
1
1
1
1
1
1
1
1
1
1
1
1.00003
1.01715
1
1
1
1
1
1
1
1
1
1
1
1
1
1
1
1
1
1
1
1
1
1
1
1.00019
1
1
1
1
1
1
1
1
1
1
1
1
1
1
1
1
1
1
1
1
1
1
1
1
1
1
1
1
1
1
1
1
1
1
1
1
1
1
1
1
1
1
1
1
1
1
1
1
1
1
1
1
1
1
1
1
1
1
1
1
1
1
1
1
1
1
1
1
1
1
1
1
1
1
1
1
1
1
1
1
1
1
1
1
1
1
1
1
1
1
1
1
1
1
1
1
1
1
1
1
1
1
1
1
1
1
1
1
1
1
1
1
1
1
1
1
1
1
1
1
1
1
1
1
1
1
1
1
1
1
1
1
1
1
1
1
1
1
1
1
1
1
1
1
1
1
1
1
1
1
1
1
1
1
1
1
1
1
1
1
1
1
1
1
1
1
1
1
1
1
1
1
1
1
1
1
1
1
1
1
1
1
1
1
1
1
1
1
1
1
1
1
1
1
1
1
1
1
1
1
1
1
1
1
1
1
1
1
1
1
1
1
1
1
1
1
1.76551
1.27783
1.12653
1.13511
1.19028
1.29491
1.35997
1.44385
1.60261
1.735
1.75175
1.7399
1.73002
1.73938
1.79038
1.84989
1.85198
1.83547
1.81074
1.79821
1.79061
1.78305
1.77857
1.77911
1.78029
1.77971
1.77837
1.77668
1.77281
1.76249
1.75308
1.74959
1.74962
1.74973
1.7472
1.74305
1.74209
1.74063
1.73675
1.73508
1.73187
1.72804
1.72655
1.72327
1.71994
1.72018
1.7233
1.73095
1.73769
1.73854
1.73574
1.72932
1.72308
1.71722
1.71163
1.70582
1.69864
1.69065
1.68591
1.69299
1.72368
1.79589
1.89103
2.00136
2.1147
2.2175
2.29943
2.36229
2.40825
2.44033
2.46073
2.47221
2.4748
2.47226
2.46858
2.45596
2.44214
2.42859
2.4155
2.40471
2.39319
2.38242
2.37349
2.36732
2.36486
2.36464
2.36356
2.35838
2.34252
2.31423
2.2947
2.27987
2.27404
2.27409
2.2766
2.28123
1.9934
1.70459
1.62378
1.51366
1.40113
1.35609
1.314
1.32236
1.3591
1.40784
1.43126
1.45562
1.49602
1.54473
1.59654
1.65542
1.71122
1.71927
1.71909
1.72044
1.72073
1.71934
1.7196
1.72385
1.72776
1.73048
1.73402
1.73482
1.73327
1.72597
1.72032
1.71925
1.71923
1.71914
1.71644
1.71104
1.70868
1.70603
1.70398
1.70535
1.70733
1.70609
1.70385
1.70211
1.70045
1.70048
1.70289
1.70951
1.71635
1.718
1.71639
1.70903
1.69941
1.69175
1.68512
1.67984
1.68201
1.69123
1.72544
1.78958
1.86679
1.9239
1.95635
1.98148
1.98843
1.99333
2.01436
2.05229
2.09674
2.12166
2.13787
2.15676
2.17927
2.2046
2.22815
2.24888
2.27078
2.28461
2.3002
2.30988
2.31588
2.31323
2.30814
2.3043
2.3023
2.30272
2.30364
2.30273
2.29522
2.27615
2.25873
2.24316
2.23408
2.23398
2.23911
2.24606
2.0949
1.8775
1.75796
1.64574
1.5207
1.44354
1.39611
1.33048
1.30921
1.30452
1.29873
1.31869
1.35259
1.38371
1.41204
1.44636
1.50893
1.55699
1.58242
1.60287
1.61966
1.62769
1.63168
1.64092
1.64761
1.65084
1.6554
1.65531
1.65202
1.64485
1.64202
1.64137
1.64176
1.64153
1.63916
1.63761
1.63803
1.63712
1.63675
1.6378
1.64073
1.64266
1.64215
1.64172
1.64146
1.64146
1.64298
1.64773
1.65446
1.65775
1.65723
1.65162
1.64039
1.63232
1.63657
1.64968
1.69127
1.75636
1.82967
1.89714
1.91571
1.91788
1.91332
1.90053
1.87217
1.84311
1.82639
1.81515
1.81263
1.81795
1.83046
1.85386
1.88953
1.93201
1.97097
2.00512
2.03501
2.05887
2.08405
2.10897
2.12911
2.14099
2.15245
2.16129
2.16773
2.17422
2.18299
2.18319
2.17974
2.16707
2.15003
2.13492
2.12346
2.12211
2.12464
2.12694
2.14482
1.98628
1.85948
1.74809
1.6418
1.5679
1.50821
1.43568
1.39586
1.37419
1.34144
1.31565
1.31472
1.31053
1.31469
1.32711
1.36578
1.422
1.45952
1.4804
1.50398
1.51952
1.52911
1.54331
1.56371
1.57532
1.58228
1.58534
1.58393
1.57912
1.57248
1.56677
1.56415
1.56137
1.55684
1.55601
1.55712
1.56001
1.56207
1.56282
1.56425
1.56711
1.56989
1.57042
1.56989
1.5686
1.56858
1.57023
1.57422
1.5762
1.57537
1.57375
1.57879
1.59407
1.64064
1.70903
1.78362
1.84417
1.864
1.868
1.86225
1.85327
1.83626
1.8132
1.7888
1.77056
1.75566
1.7411
1.72687
1.71381
1.70273
1.68996
1.68163
1.68972
1.71013
1.74043
1.77893
1.82313
1.86323
1.90185
1.92857
1.94501
1.95783
1.96607
1.97191
1.97967
1.99059
2.00712
2.01958
2.0207
2.0188
2.01427
2.00844
2.00563
2.00721
2.01032
2.18152
2.0519
1.93935
1.82896
1.73695
1.66745
1.59844
1.52943
1.48002
1.438
1.3994
1.36472
1.35174
1.33521
1.31409
1.3168
1.32472
1.33732
1.3581
1.37991
1.40985
1.43996
1.45836
1.47097
1.49195
1.50783
1.5133
1.51984
1.52814
1.53063
1.52908
1.52813
1.52667
1.52235
1.51525
1.51005
1.50729
1.5073
1.50669
1.50525
1.50583
1.50834
1.51254
1.51765
1.52078
1.52089
1.51933
1.51621
1.51311
1.51234
1.51646
1.53176
1.57945
1.65825
1.74184
1.81407
1.83399
1.83984
1.83561
1.82868
1.81349
1.79274
1.773
1.76106
1.75166
1.73653
1.72241
1.70908
1.69492
1.68259
1.67224
1.66121
1.6447
1.63141
1.626
1.62505
1.62845
1.64018
1.66143
1.6882
1.71877
1.74529
1.76498
1.78121
1.79598
1.81137
1.82941
1.85243
1.87123
1.87911
1.87908
1.87941
1.87828
1.87471
1.87554
1.88754
2.2039
2.09926
1.99784
1.8982
1.81542
1.74179
1.67124
1.60811
1.56639
1.52344
1.47416
1.43939
1.42001
1.39802
1.36488
1.35363
1.3441
1.33414
1.32838
1.33035
1.33702
1.35221
1.37708
1.40071
1.42673
1.45178
1.46376
1.47302
1.48636
1.4925
1.49194
1.49427
1.49829
1.49787
1.49468
1.49197
1.48952
1.48544
1.48107
1.47768
1.47717
1.47786
1.48048
1.48585
1.48955
1.48861
1.48491
1.4803
1.48159
1.4929
1.53654
1.61297
1.7023
1.7843
1.8101
1.82586
1.82632
1.82352
1.81204
1.79444
1.77387
1.75852
1.74955
1.73743
1.7208
1.7067
1.69723
1.68705
1.67708
1.66951
1.66149
1.65031
1.63515
1.61896
1.60841
1.60337
1.60166
1.60016
1.59803
1.59384
1.58969
1.58559
1.58608
1.59209
1.60526
1.62794
1.65694
1.68478
1.71255
1.73806
1.75211
1.76292
1.76935
1.76984
1.77314
1.7856
2.2187
2.13396
2.04304
1.95096
1.87844
1.80935
1.7404
1.67748
1.63213
1.58773
1.54364
1.51168
1.48712
1.45665
1.41765
1.39076
1.37268
1.35196
1.32949
1.32619
1.32682
1.32829
1.33288
1.34195
1.35626
1.37677
1.39899
1.41514
1.43555
1.454
1.46037
1.46782
1.47626
1.47921
1.47872
1.47865
1.47742
1.4743
1.47141
1.46975
1.46863
1.46824
1.46803
1.46797
1.46815
1.46672
1.46626
1.47463
1.51491
1.59911
1.70018
1.78371
1.8122
1.82169
1.82431
1.82303
1.81862
1.80707
1.7897
1.77293
1.76088
1.74979
1.73552
1.71949
1.7025
1.68955
1.68114
1.67227
1.66358
1.657
1.65196
1.64403
1.63339
1.61884
1.60032
1.58745
1.58299
1.57898
1.57315
1.56473
1.55426
1.54365
1.53384
1.52433
1.51132
1.50538
1.50845
1.51814
1.53301
1.55198
1.57337
1.59331
1.6132
1.63272
1.64483
1.6714
2.22541
2.15437
2.07519
1.99895
1.93172
1.86489
1.79195
1.74148
1.69658
1.65069
1.59889
1.57017
1.54386
1.51254
1.47826
1.45319
1.43187
1.40534
1.3706
1.36073
1.35151
1.33786
1.32992
1.32972
1.32663
1.32022
1.32264
1.33521
1.35707
1.38785
1.41669
1.43426
1.45058
1.46351
1.46742
1.46848
1.46824
1.4664
1.46612
1.46576
1.46411
1.46278
1.46037
1.45686
1.45495
1.46025
1.49269
1.57424
1.68284
1.78248
1.82061
1.84151
1.84119
1.8357
1.82144
1.80445
1.7946
1.7863
1.77767
1.76962
1.75701
1.73995
1.72198
1.70539
1.68876
1.67467
1.66597
1.65707
1.64827
1.64295
1.63826
1.62927
1.62035
1.60835
1.58729
1.56764
1.56002
1.55388
1.54534
1.53556
1.5256
1.51664
1.50978
1.50396
1.49486
1.47655
1.46385
1.45892
1.45501
1.45176
1.45255
1.45669
1.46235
1.46988
1.47836
1.50473
2.22407
2.16454
2.09733
2.03146
1.9712
1.90793
1.84162
1.79266
1.74738
1.70122
1.65372
1.62513
1.59446
1.55851
1.51958
1.49955
1.47901
1.45276
1.41906
1.40021
1.38426
1.36273
1.33672
1.32904
1.32253
1.31111
1.31025
1.31208
1.31648
1.32642
1.34573
1.37057
1.39548
1.42149
1.43866
1.44679
1.45232
1.45836
1.46101
1.46087
1.46009
1.45862
1.4556
1.45665
1.47333
1.53855
1.66109
1.7667
1.80935
1.83674
1.84983
1.8507
1.84418
1.82618
1.79939
1.78192
1.77337
1.76847
1.76209
1.754
1.74163
1.72545
1.70928
1.69313
1.67446
1.65641
1.64606
1.63738
1.62797
1.62389
1.62017
1.60911
1.59917
1.58852
1.57106
1.54675
1.53085
1.52235
1.51401
1.50495
1.49626
1.49048
1.48649
1.48254
1.47584
1.45943
1.44001
1.43059
1.42479
1.42033
1.41781
1.41795
1.41819
1.41576
1.4102
1.39968
2.21773
2.1667
2.10995
2.05379
2.00138
1.94193
1.88249
1.83775
1.79465
1.74591
1.7015
1.67065
1.63726
1.60378
1.5674
1.54349
1.51946
1.49166
1.45912
1.44246
1.42719
1.40551
1.37379
1.35911
1.34789
1.33023
1.3142
1.31405
1.31504
1.3095
1.30943
1.31404
1.32706
1.34848
1.37715
1.40185
1.41883
1.43835
1.44807
1.45016
1.44906
1.45252
1.47023
1.53473
1.63215
1.75128
1.82474
1.84327
1.84868
1.84987
1.84619
1.83743
1.82608
1.80538
1.77799
1.76684
1.75941
1.74716
1.73663
1.7281
1.71964
1.70775
1.69302
1.67588
1.65504
1.63455
1.6211
1.61153
1.60415
1.59963
1.59044
1.57941
1.57058
1.56157
1.54898
1.52838
1.50428
1.49062
1.48194
1.47494
1.47003
1.46309
1.45861
1.45536
1.4505
1.43989
1.42132
1.40529
1.3971
1.39166
1.38823
1.38794
1.38789
1.38474
1.37954
1.3666
2.20705
2.16372
2.11567
2.06743
2.02005
1.96714
1.91698
1.87325
1.82946
1.78
1.74306
1.7104
1.67587
1.63745
1.60493
1.58043
1.5549
1.52869
1.49507
1.47552
1.45805
1.43579
1.40614
1.38872
1.37588
1.35747
1.33084
1.32238
1.32116
1.31362
1.30619
1.30662
1.3089
1.31186
1.31699
1.33196
1.35495
1.38352
1.40809
1.42266
1.43335
1.47032
1.60629
1.74453
1.80811
1.86684
1.86346
1.85231
1.84258
1.84112
1.83015
1.81304
1.79813
1.78229
1.75937
1.7431
1.73131
1.7172
1.70528
1.69696
1.69099
1.68019
1.666
1.64971
1.63217
1.61434
1.59629
1.58229
1.57253
1.56363
1.55297
1.54284
1.53507
1.52734
1.5189
1.50694
1.48528
1.46363
1.45219
1.44273
1.43319
1.42558
1.42048
1.41667
1.41384
1.40996
1.40177
1.38746
1.3742
1.36852
1.36552
1.36291
1.35909
1.35462
1.34889
1.33592
2.19587
2.1576
2.11505
2.07429
2.03206
1.98414
1.94118
1.90119
1.8578
1.81031
1.77672
1.74247
1.70684
1.66962
1.64107
1.61128
1.58264
1.55805
1.52877
1.5063
1.4883
1.46788
1.43689
1.41753
1.40514
1.38881
1.36279
1.34867
1.34637
1.33864
1.32078
1.31051
1.31205
1.30936
1.30323
1.3029
1.30655
1.32001
1.35045
1.38112
1.46049
1.62043
1.78577
1.83527
1.85731
1.8681
1.86256
1.85245
1.8369
1.81767
1.79899
1.78229
1.76937
1.75468
1.73559
1.71657
1.70146
1.6865
1.67237
1.66298
1.65637
1.64621
1.6321
1.61664
1.60286
1.5899
1.57388
1.55275
1.5362
1.5264
1.51646
1.5063
1.49979
1.49605
1.48865
1.4796
1.4671
1.44512
1.4228
1.40965
1.4003
1.3927
1.3869
1.38166
1.37774
1.37547
1.37288
1.36699
1.35311
1.33761
1.33109
1.3266
1.32146
1.31563
1.31113
1.30103
2.18089
2.14693
2.11088
2.07404
2.03513
1.99356
1.95688
1.92054
1.87648
1.83291
1.80191
1.76945
1.73276
1.69401
1.66828
1.63778
1.60752
1.58347
1.55961
1.53231
1.51096
1.49213
1.46543
1.44328
1.43091
1.4169
1.39317
1.37352
1.36868
1.36061
1.3441
1.32424
1.32004
1.31457
1.30479
1.29922
1.30037
1.30529
1.33132
1.4651
1.62633
1.75814
1.7928
1.80699
1.81249
1.81011
1.80481
1.79062
1.77137
1.75687
1.75048
1.74333
1.73448
1.72288
1.71131
1.69717
1.67937
1.66019
1.64117
1.62673
1.61617
1.60572
1.59515
1.5845
1.57453
1.56184
1.54705
1.52685
1.50277
1.489
1.47994
1.47035
1.46377
1.46394
1.46052
1.45212
1.44188
1.42739
1.40391
1.38105
1.36801
1.36047
1.3545
1.35028
1.34803
1.34541
1.34173
1.33781
1.33
1.31207
1.29902
1.29374
1.28834
1.28135
1.27527
1.26716
2.1659
2.13454
2.10315
2.07075
2.0344
1.99652
1.96267
1.92905
1.88989
1.85253
1.82042
1.78788
1.75
1.71693
1.69139
1.6632
1.62889
1.60109
1.58322
1.5573
1.53317
1.51591
1.49116
1.46401
1.45212
1.44108
1.42341
1.40312
1.39668
1.38908
1.37445
1.35066
1.34188
1.33575
1.32394
1.31349
1.32154
1.37321
1.5071
1.66116
1.74182
1.76258
1.74894
1.73281
1.72088
1.70946
1.70047
1.69067
1.6852
1.68792
1.69088
1.69027
1.6881
1.67955
1.6684
1.66004
1.64592
1.62459
1.60449
1.58466
1.57286
1.56671
1.56241
1.55904
1.55126
1.53715
1.52123
1.5023
1.47774
1.45729
1.44698
1.43808
1.42968
1.42435
1.42425
1.42136
1.41281
1.40218
1.38613
1.36301
1.34306
1.33379
1.32711
1.32431
1.3241
1.31889
1.31245
1.30787
1.30212
1.28938
1.2722
1.26416
1.25874
1.25207
1.2463
1.24063
2.14433
2.1176
2.09065
2.06184
2.02857
1.99571
1.9652
1.933
1.89719
1.8661
1.83472
1.80222
1.7662
1.73608
1.70915
1.68161
1.65042
1.62225
1.60406
1.57844
1.55048
1.53467
1.51636
1.49038
1.4745
1.46282
1.44622
1.42564
1.41896
1.41276
1.40052
1.37909
1.36315
1.35558
1.34434
1.3599
1.45003
1.60048
1.73312
1.77335
1.76069
1.73987
1.71289
1.68671
1.66819
1.64954
1.63322
1.61984
1.6098
1.60721
1.60754
1.60759
1.60904
1.61243
1.61217
1.6107
1.6001
1.57956
1.55452
1.53971
1.53293
1.52826
1.52629
1.52602
1.52101
1.51115
1.49809
1.48096
1.45915
1.43691
1.422
1.40988
1.39929
1.39152
1.38523
1.38095
1.37776
1.37099
1.36205
1.3476
1.32821
1.31403
1.30618
1.29953
1.29194
1.28445
1.27821
1.27346
1.26993
1.26402
1.25079
1.23963
1.23381
1.22763
1.2252
1.22268
2.1274
2.10421
2.0793
2.05261
2.02343
1.99479
1.96482
1.93272
1.90243
1.87592
1.84503
1.81121
1.7764
1.75321
1.72719
1.69928
1.66499
1.64096
1.62125
1.59721
1.57047
1.55223
1.53478
1.50887
1.49266
1.48418
1.4725
1.45232
1.44009
1.43128
1.41984
1.40127
1.38604
1.38783
1.42478
1.55613
1.71176
1.80324
1.81242
1.79181
1.75876
1.72468
1.69383
1.6695
1.64815
1.62962
1.61645
1.60375
1.58859
1.56919
1.55397
1.54362
1.53535
1.53208
1.52814
1.52424
1.52087
1.51157
1.49486
1.4834
1.48156
1.47806
1.47322
1.46969
1.46793
1.46734
1.46393
1.45384
1.43734
1.41899
1.39999
1.38496
1.37358
1.36273
1.35479
1.35104
1.34639
1.33878
1.3325
1.32565
1.31526
1.30114
1.28719
1.27543
1.26604
1.25825
1.25109
1.24442
1.23922
1.23521
1.22932
1.22082
1.21524
1.21139
1.20855
1.19792
2.10589
2.08706
2.06546
2.04063
2.01477
1.98931
1.96236
1.93168
1.90486
1.87824
1.85035
1.81834
1.78911
1.76619
1.73992
1.71213
1.68118
1.66003
1.63712
1.61209
1.58472
1.5693
1.55378
1.53116
1.51237
1.50169
1.49003
1.47465
1.4624
1.44971
1.43762
1.41955
1.42968
1.5075
1.66845
1.79506
1.8607
1.85492
1.82948
1.78073
1.73705
1.70916
1.68659
1.66536
1.6445
1.62731
1.6122
1.59542
1.57617
1.55395
1.53088
1.51399
1.50237
1.49061
1.48031
1.47188
1.46134
1.44943
1.4323
1.41391
1.40204
1.40224
1.40489
1.40744
1.40881
1.40931
1.40897
1.40828
1.40103
1.38778
1.36968
1.35766
1.35
1.34084
1.33141
1.32522
1.319
1.31232
1.30814
1.30377
1.29609
1.28553
1.27027
1.25364
1.24216
1.23405
1.22666
1.21955
1.21434
1.21182
1.20895
1.20158
1.19355
1.18801
1.18331
1.17338
2.08471
2.06541
2.04634
2.02439
2.0022
1.9795
1.95376
1.92538
1.90216
1.87862
1.85286
1.81964
1.79565
1.77365
1.74996
1.72109
1.69366
1.67274
1.64812
1.62487
1.59946
1.58303
1.56703
1.54535
1.52971
1.52086
1.50868
1.49148
1.47504
1.46507
1.46131
1.49129
1.617
1.77554
1.88681
1.89448
1.87712
1.84504
1.81066
1.77246
1.73517
1.70785
1.68829
1.66886
1.64828
1.6281
1.60806
1.58687
1.56462
1.54225
1.51932
1.49838
1.48359
1.46985
1.45666
1.44515
1.43291
1.42123
1.41111
1.39175
1.3631
1.34458
1.33621
1.33331
1.3314
1.33211
1.33411
1.33789
1.3416
1.34074
1.3281
1.31425
1.31044
1.30625
1.29686
1.28978
1.28761
1.28738
1.28708
1.28388
1.27548
1.26275
1.24781
1.23165
1.22043
1.21231
1.20423
1.19784
1.19467
1.19311
1.19063
1.18363
1.17083
1.16311
1.15884
1.15023
2.07319
2.05067
2.02823
2.00868
1.988
1.96678
1.94401
1.92038
1.89697
1.87441
1.85032
1.82381
1.80217
1.77844
1.75253
1.7233
1.70329
1.68327
1.66039
1.63366
1.6101
1.59722
1.58084
1.56071
1.54215
1.53318
1.52094
1.5067
1.49116
1.5001
1.57138
1.73289
1.87394
1.92529
1.91953
1.90132
1.87093
1.83423
1.79956
1.76558
1.73206
1.70342
1.68479
1.66665
1.6479
1.62935
1.60904
1.58478
1.55862
1.53278
1.51025
1.49368
1.47811
1.4613
1.44458
1.42936
1.41478
1.40175
1.38975
1.37666
1.3568
1.32918
1.30976
1.29909
1.28786
1.27929
1.27571
1.27674
1.27849
1.27682
1.26977
1.25552
1.24668
1.24539
1.24288
1.24269
1.2453
1.24993
1.25406
1.25326
1.24816
1.23696
1.22548
1.21425
1.20252
1.19097
1.18366
1.18048
1.17888
1.17716
1.17343
1.16365
1.14841
1.13938
1.13562
1.12894
2.00045
2.03624
2.01674
1.99259
1.97279
1.95371
1.93145
1.90994
1.89105
1.87117
1.84716
1.82348
1.80311
1.77988
1.75531
1.72843
1.70979
1.68884
1.66681
1.64202
1.62173
1.60818
1.59186
1.57038
1.55396
1.54342
1.53074
1.52309
1.56165
1.68807
1.85344
1.9521
1.96455
1.94967
1.9218
1.88437
1.84764
1.81368
1.78578
1.7583
1.72762
1.70133
1.68267
1.66461
1.64575
1.62583
1.60411
1.57935
1.55299
1.52858
1.50765
1.48921
1.47169
1.45384
1.43617
1.41954
1.40328
1.38805
1.37453
1.36124
1.34504
1.32271
1.29786
1.27918
1.26479
1.2545
1.24874
1.24589
1.24326
1.2383
1.23084
1.21808
1.19983
1.1884
1.18329
1.18253
1.18584
1.19702
1.21207
1.2182
1.21739
1.20862
1.19311
1.18187
1.1729
1.16674
1.16639
1.1678
1.16683
1.16388
1.15849
1.14702
1.13164
1.12168
1.11724
1.11121
1.7903
1.98974
2.00253
1.98239
1.95836
1.93876
1.92042
1.90167
1.8827
1.8625
1.8397
1.82193
1.80318
1.78101
1.75162
1.72877
1.71454
1.69506
1.67457
1.64762
1.63115
1.61697
1.59946
1.57989
1.56138
1.55132
1.56172
1.63359
1.81784
1.95725
2.01469
2.00149
1.96721
1.92133
1.88362
1.85355
1.82482
1.79785
1.77615
1.75605
1.73164
1.70304
1.6761
1.65302
1.63174
1.61178
1.59226
1.57136
1.54824
1.52529
1.50434
1.48439
1.46515
1.44633
1.4275
1.40946
1.39311
1.3778
1.36397
1.35102
1.33758
1.3216
1.29964
1.2737
1.25507
1.24206
1.23227
1.22563
1.21975
1.21324
1.20601
1.19634
1.1812
1.16394
1.15215
1.14482
1.14294
1.14426
1.14941
1.1582
1.16256
1.16103
1.14965
1.14378
1.14327
1.14093
1.13886
1.14086
1.14079
1.13919
1.13649
1.13137
1.11964
1.10934
1.1042
1.09646
1.35229
1.81856
1.96676
1.96728
1.94847
1.92771
1.90938
1.89163
1.87457
1.85618
1.83403
1.81467
1.79747
1.77828
1.75298
1.73207
1.71481
1.69505
1.67504
1.65408
1.64028
1.6246
1.60507
1.58389
1.57671
1.60886
1.74662
1.91567
2.03895
2.03493
2.02058
1.98643
1.94416
1.8999
1.86489
1.83953
1.81678
1.79447
1.77004
1.74488
1.71966
1.69354
1.66821
1.64417
1.62038
1.59821
1.57869
1.55997
1.5399
1.51768
1.49547
1.47705
1.46133
1.44503
1.42666
1.40722
1.38912
1.37197
1.35619
1.34258
1.32937
1.31521
1.29734
1.27544
1.2572
1.24236
1.22945
1.21935
1.21097
1.20296
1.19347
1.18004
1.16261
1.14671
1.13454
1.12753
1.12354
1.12018
1.11836
1.11739
1.11504
1.11052
1.10231
1.09516
1.09596
1.09887
1.10544
1.11431
1.11892
1.11864
1.1159
1.10839
1.09889
1.08954
1.08355
1.0767
1.03622
1.42391
1.82394
1.94043
1.93743
1.91736
1.89687
1.88165
1.86625
1.84738
1.82642
1.80894
1.79226
1.77359
1.74779
1.73172
1.71553
1.69756
1.67667
1.65785
1.6443
1.62726
1.60837
1.61354
1.68757
1.8747
2.01094
2.06537
2.06096
2.03728
2.00121
1.96013
1.92099
1.88676
1.8558
1.82823
1.80318
1.77988
1.75639
1.73239
1.70789
1.68283
1.65719
1.63123
1.60662
1.58531
1.56706
1.54965
1.53045
1.50824
1.48351
1.45919
1.44466
1.43544
1.42333
1.40727
1.38926
1.37097
1.35266
1.33506
1.31789
1.29991
1.28071
1.26322
1.24933
1.23879
1.23001
1.22152
1.21263
1.20354
1.19189
1.17472
1.15291
1.13246
1.12077
1.11338
1.10794
1.10485
1.10363
1.1021
1.09768
1.08838
1.07367
1.06005
1.05504
1.05542
1.05894
1.06924
1.08325
1.08948
1.08888
1.0827
1.07741
1.07333
1.0684
1.06098
1.00057
1.06006
1.46851
1.81858
1.9152
1.90988
1.88856
1.86792
1.85406
1.83929
1.82172
1.80203
1.78382
1.76582
1.74542
1.73049
1.71445
1.6959
1.67348
1.65691
1.64675
1.63539
1.66789
1.81659
1.98343
2.11171
2.10751
2.07581
2.03926
2.0071
1.96851
1.93032
1.89843
1.87117
1.84432
1.81697
1.79073
1.76534
1.73971
1.71517
1.69165
1.66778
1.64344
1.61976
1.59591
1.57199
1.55096
1.53327
1.51624
1.49855
1.47946
1.45446
1.4278
1.41485
1.40541
1.39315
1.37923
1.36482
1.3492
1.3329
1.31662
1.29889
1.27662
1.25272
1.23665
1.22756
1.22049
1.2148
1.21026
1.20443
1.19417
1.17723
1.15425
1.13148
1.11667
1.10796
1.10119
1.09663
1.09431
1.09222
1.08855
1.07945
1.0616
1.04187
1.03516
1.03226
1.0304
1.03124
1.03641
1.04632
1.05269
1.05244
1.05066
1.05177
1.05115
1.04717
1
1.00127
1.08328
1.49084
1.80983
1.88876
1.88249
1.86234
1.84341
1.82845
1.81263
1.79536
1.78011
1.76152
1.73785
1.72502
1.71167
1.69564
1.67425
1.65595
1.6631
1.75124
1.93934
2.11313
2.13189
2.11802
2.08798
2.04207
2.00238
1.97042
1.93805
1.90795
1.88186
1.85654
1.83103
1.80467
1.77664
1.74825
1.72185
1.69765
1.67483
1.6515
1.62563
1.59979
1.57678
1.5559
1.53642
1.51809
1.5012
1.48512
1.46923
1.45066
1.42555
1.40194
1.38586
1.37303
1.36242
1.35106
1.3382
1.32462
1.3109
1.29524
1.27452
1.25265
1.23659
1.22588
1.21767
1.20986
1.20155
1.19222
1.18287
1.17254
1.15797
1.14097
1.12825
1.11918
1.1107
1.10222
1.09478
1.08816
1.08128
1.07278
1.0575
1.03519
1.02388
1.02058
1.01841
1.01662
1.01623
1.01668
1.01866
1.02068
1.01852
1.01744
1.0198
1.02374
1
1.00001
1.00222
1.10012
1.50602
1.78975
1.86084
1.85767
1.83934
1.81857
1.80282
1.78708
1.77182
1.75652
1.73718
1.72235
1.70489
1.68896
1.6793
1.71642
1.87035
2.05874
2.16622
2.18082
2.15883
2.11331
2.06224
2.01723
1.97844
1.94726
1.91959
1.89131
1.86318
1.83654
1.81001
1.7834
1.75713
1.72961
1.70223
1.6774
1.65483
1.63314
1.60997
1.58398
1.55767
1.53593
1.51899
1.50445
1.48987
1.47376
1.45726
1.4398
1.41769
1.39223
1.37217
1.36159
1.35349
1.34444
1.3335
1.31904
1.30142
1.28266
1.26318
1.24894
1.24254
1.23659
1.22814
1.21854
1.20791
1.19607
1.18269
1.16777
1.15348
1.13985
1.12442
1.11045
1.10205
1.09687
1.09274
1.08649
1.07739
1.06707
1.05431
1.03454
1.02062
1.01664
1.01422
1.01125
1.00814
1.00565
1.00343
1.0011
0.996253
0.987836
0.985186
0.989095
1
1
1.00001
1.00318
1.11204
1.50747
1.75809
1.83662
1.83499
1.81668
1.79338
1.77757
1.76555
1.75097
1.73334
1.71774
1.70047
1.70664
1.79734
2.01528
2.16567
2.20266
2.17834
2.14638
2.10916
2.06654
2.02899
1.99535
1.9617
1.92972
1.89972
1.8697
1.83942
1.80974
1.78138
1.75472
1.72975
1.70588
1.68175
1.65817
1.63667
1.61611
1.59381
1.57042
1.54501
1.52038
1.50234
1.48974
1.4796
1.46597
1.44747
1.42862
1.40769
1.38378
1.36636
1.35651
1.34666
1.33514
1.3248
1.31376
1.29851
1.27834
1.26035
1.24705
1.23706
1.22724
1.2164
1.20715
1.19896
1.18938
1.17928
1.17141
1.16218
1.14776
1.12602
1.10797
1.09938
1.09588
1.09253
1.0891
1.08425
1.07568
1.06096
1.03874
1.02101
1.01599
1.013
1.00918
1.00538
1.00212
0.998696
0.994832
0.987705
0.974712
0.965113
0.964213
1
1
1
1.00002
1.00391
1.11824
1.4808
1.73429
1.81782
1.81484
1.79449
1.77233
1.75825
1.74243
1.728
1.71844
1.754
1.92845
2.13624
2.25537
2.24204
2.19956
2.14871
2.10097
2.05988
2.02201
1.99233
1.96603
1.93945
1.91159
1.88097
1.84812
1.8152
1.78366
1.75486
1.72982
1.70745
1.68586
1.66401
1.64238
1.6215
1.60196
1.58361
1.56151
1.53557
1.51175
1.49548
1.48093
1.46996
1.46283
1.45314
1.43539
1.41191
1.3846
1.35992
1.34827
1.34343
1.33711
1.3259
1.31031
1.29646
1.28774
1.27601
1.25873
1.2409
1.22542
1.21203
1.20297
1.19572
1.18831
1.18014
1.17024
1.15662
1.13975
1.12663
1.11507
1.11047
1.10739
1.10297
1.09551
1.08439
1.07008
1.05115
1.02994
1.02335
1.02297
1.02174
1.01732
1.01264
1.0086
1.00383
0.996943
0.984786
0.966024
0.95669
0.952522
1
1
1
1
1.00003
1.0042
1.11047
1.44494
1.72518
1.79393
1.78855
1.77269
1.75314
1.73113
1.73438
1.8326
2.0831
2.25808
2.2579
2.23362
2.18791
2.14866
2.10966
2.07118
2.0358
2.00085
1.96818
1.93953
1.91344
1.88705
1.85871
1.82863
1.79766
1.76708
1.73898
1.71459
1.69356
1.67531
1.65779
1.63849
1.61678
1.59334
1.56764
1.54213
1.52454
1.51371
1.5017
1.48686
1.47185
1.45841
1.44296
1.42477
1.40529
1.38736
1.36853
1.35141
1.33774
1.3268
1.31644
1.30522
1.29479
1.28288
1.26677
1.24468
1.22542
1.21865
1.21615
1.21261
1.20769
1.20061
1.19049
1.17702
1.159
1.13609
1.1174
1.10745
1.10388
1.10134
1.09797
1.09208
1.08181
1.06708
1.04821
1.03323
1.02629
1.02183
1.01758
1.01315
1.00877
1.00406
0.997729
0.988156
0.973743
0.956446
0.950548
0.94624
1
1
1
1
1
1.00003
1.00388
1.09359
1.42785
1.69571
1.76205
1.76223
1.75583
1.77203
1.92665
2.18092
2.33655
2.32967
2.28645
2.2096
2.14515
2.10513
2.0761
2.04606
2.01328
1.97933
1.94682
1.91802
1.89239
1.86697
1.84005
1.81175
1.78272
1.75453
1.72918
1.70677
1.68644
1.66768
1.64915
1.62946
1.60859
1.58556
1.5611
1.54017
1.52334
1.50781
1.49338
1.47991
1.46659
1.4522
1.43712
1.42256
1.40605
1.38479
1.36335
1.34692
1.33399
1.32372
1.31454
1.30523
1.29455
1.28153
1.26369
1.24008
1.22452
1.21851
1.21292
1.20829
1.20344
1.19617
1.18573
1.17234
1.15475
1.13198
1.11487
1.10661
1.10334
1.10088
1.09774
1.09178
1.08238
1.06938
1.05267
1.03728
1.02828
1.02251
1.01763
1.01305
1.00854
1.00351
0.997005
0.987012
0.971982
0.954388
0.948195
0.943595
1
1
1
1
1
1
1.00003
1.00305
1.08273
1.39766
1.648
1.72035
1.83777
2.04185
2.22911
2.3065
2.29471
2.25993
2.22311
2.182
2.13978
2.09975
2.06685
2.03462
2.00442
1.9775
1.95195
1.92705
1.90223
1.87626
1.84912
1.82136
1.79356
1.76681
1.74203
1.71915
1.69784
1.678
1.65878
1.63917
1.61844
1.5963
1.57426
1.55379
1.53438
1.51638
1.50126
1.48735
1.4738
1.46122
1.44907
1.43533
1.41694
1.39318
1.36943
1.35255
1.34205
1.33359
1.32513
1.31589
1.30493
1.29092
1.27146
1.24852
1.23242
1.22381
1.21846
1.21428
1.20883
1.20085
1.19
1.17622
1.1583
1.13723
1.12268
1.11615
1.11362
1.11119
1.10706
1.10003
1.0906
1.07888
1.06289
1.04548
1.03565
1.03039
1.02595
1.02168
1.01725
1.01198
1.00486
0.993589
0.976981
0.959082
0.952079
0.946634
1
1
1
1
1
1
1
1.00002
1.00263
1.07485
1.38688
1.76598
2.1206
2.41078
2.53352
2.44732
2.3175
2.22115
2.1701
2.14882
2.12299
2.08785
2.04808
2.01248
1.98248
1.95809
1.93578
1.91339
1.88951
1.86305
1.83463
1.80571
1.77762
1.75139
1.72739
1.70504
1.68352
1.66269
1.64271
1.62345
1.60403
1.58351
1.56204
1.5404
1.51947
1.50138
1.48709
1.47387
1.46033
1.44725
1.43486
1.42128
1.40319
1.37924
1.355
1.33919
1.32975
1.32146
1.31258
1.30272
1.29156
1.27783
1.25928
1.2375
1.2199
1.20971
1.20515
1.20165
1.19647
1.18855
1.17758
1.1634
1.14536
1.12543
1.11117
1.10516
1.10294
1.10096
1.09718
1.09046
1.08099
1.06878
1.05158
1.03405
1.02597
1.02163
1.01745
1.01305
1.00831
1.00277
0.995496
0.983814
0.966855
0.950782
0.943564
0.937096
)
;

boundaryField
{
    inlet
    {
        type            fixedValue;
        value           uniform 1;
    }
    outlet
    {
        type            inletOutlet;
        inletValue      uniform 1;
        value           nonuniform List<scalar> 
32
(
2.28422
2.24888
2.12907
2.01241
1.88832
1.78465
1.66774
1.49969
1.39814
1.36561
1.33537
1.30112
1.26776
1.24181
1.2236
1.19737
1.17325
1.15029
1.12909
1.11143
1.09667
1.07732
1.06096
1.04699
1.02383
0.989427
0.964706
0.953154
0.946892
0.944257
0.947375
0.937792
)
;
    }
    bottom
    {
        type            symmetryPlane;
    }
    top
    {
        type            symmetryPlane;
    }
    obstacle
    {
        type            zeroGradient;
    }
    defaultFaces
    {
        type            empty;
    }
}


// ************************************************************************* //
