/*--------------------------------*- C++ -*----------------------------------*\
  =========                 |
  \\      /  F ield         | OpenFOAM: The Open Source CFD Toolbox
   \\    /   O peration     | Website:  https://openfoam.org
    \\  /    A nd           | Version:  7
     \\/     M anipulation  |
\*---------------------------------------------------------------------------*/
FoamFile
{
    version     2.0;
    format      ascii;
    class       volVectorField;
    location    "1.3";
    object      U;
}
// * * * * * * * * * * * * * * * * * * * * * * * * * * * * * * * * * * * * * //

dimensions      [0 1 -1 0 0 0 0];

internalField   nonuniform List<vector> 
4032
(
(3 -1.71509e-18 0)
(3 2.49021e-17 0)
(3 2.84218e-16 0)
(3 1.9216e-16 0)
(3 -1.45948e-16 0)
(3 -4.05025e-16 0)
(3 -4.48186e-16 0)
(3 4.86688e-17 0)
(3 2.40182e-16 0)
(3 3.73885e-16 0)
(3 4.15616e-16 0)
(3 1.25844e-16 0)
(2.72327 0.00658715 0)
(0.906115 0.0173452 0)
(0.661328 0.0303024 0)
(0.5942 0.0283992 0)
(0.530571 0.0239098 0)
(0.475113 0.0219079 0)
(0.42165 0.0239665 0)
(0.364377 0.0281709 0)
(0.300372 0.0339567 0)
(0.223561 0.0388058 0)
(0.14148 0.0420472 0)
(0.0521112 0.0465723 0)
(3 6.20106e-17 0)
(3 4.15558e-16 0)
(3 1.22277e-15 0)
(3 1.19644e-15 0)
(3 1.87446e-16 0)
(3 -3.92724e-16 0)
(3 -2.1179e-17 0)
(3 6.40102e-16 0)
(3 1.07793e-15 0)
(3 8.87168e-16 0)
(3 6.43556e-16 0)
(3 -3.11711e-16 0)
(2.74424 0.0343832 0)
(0.904458 0.0828422 0)
(0.639982 0.0910666 0)
(0.579187 0.0786311 0)
(0.521924 0.0711697 0)
(0.467907 0.0688419 0)
(0.413418 0.0756657 0)
(0.354237 0.087666 0)
(0.289645 0.103503 0)
(0.21399 0.118604 0)
(0.134212 0.128855 0)
(0.0496563 0.14285 0)
(3 -2.33796e-16 0)
(3 -1.68863e-16 0)
(3 3.11023e-17 0)
(3 4.79441e-17 0)
(3 4.15508e-16 0)
(3 6.70984e-16 0)
(3 1.31805e-15 0)
(3 1.27383e-15 0)
(3 6.76613e-16 0)
(3 5.83646e-16 0)
(3 -3.56591e-16 0)
(3 -1.05544e-15 0)
(2.81968 0.0670198 0)
(0.941765 0.155856 0)
(0.652824 0.151348 0)
(0.599985 0.128584 0)
(0.542251 0.119759 0)
(0.483997 0.119977 0)
(0.423712 0.132601 0)
(0.358273 0.151759 0)
(0.28783 0.174328 0)
(0.210022 0.196904 0)
(0.129002 0.212406 0)
(0.0475507 0.234655 0)
(3 -2.07516e-16 0)
(3 -2.03624e-16 0)
(3 -1.35092e-17 0)
(3 1.10942e-16 0)
(3 2.35282e-16 0)
(3 7.85921e-16 0)
(3 -5.15364e-17 0)
(3 -6.04002e-16 0)
(3 -8.64221e-16 0)
(3 -7.45921e-16 0)
(3 -7.5725e-16 0)
(3 -1.08241e-15 0)
(2.93223 0.0609069 0)
(1.01023 0.219114 0)
(0.688551 0.19377 0)
(0.639411 0.169203 0)
(0.578399 0.16901 0)
(0.513133 0.177682 0)
(0.443241 0.198081 0)
(0.369051 0.224544 0)
(0.291728 0.252109 0)
(0.21185 0.280408 0)
(0.128649 0.299828 0)
(0.0462724 0.327253 0)
(3 3.17677e-16 0)
(3 1.08081e-15 0)
(3 1.20581e-15 0)
(3 8.67499e-16 0)
(3 1.45937e-16 0)
(3 -7.45037e-16 0)
(3 -1.76731e-15 0)
(3 -1.94048e-15 0)
(3 -1.22767e-15 0)
(3 -3.6315e-16 0)
(3 2.87418e-17 0)
(3 -7.00235e-16 0)
(3.00996 0.00799408 0)
(1.11805 0.25849 0)
(0.719233 0.234648 0)
(0.655844 0.224671 0)
(0.588149 0.232751 0)
(0.521875 0.246302 0)
(0.457323 0.269651 0)
(0.391605 0.299801 0)
(0.319323 0.330898 0)
(0.24016 0.366245 0)
(0.149001 0.394105 0)
(0.0553744 0.42949 0)
(3 -9.93109e-18 0)
(3 -1.96763e-16 0)
(3 -2.51967e-16 0)
(3 -8.20105e-17 0)
(3 -2.04878e-16 0)
(3 -7.4191e-16 0)
(3 -9.80159e-16 0)
(3 -1.13489e-15 0)
(3 -4.88655e-16 0)
(3 -4.60234e-17 0)
(3 -2.22529e-16 0)
(3 -4.48359e-16 0)
(3.00047 4.91552e-05 0)
(1.28461 0.304301 0)
(0.727124 0.288471 0)
(0.655745 0.281427 0)
(0.597007 0.292441 0)
(0.537504 0.308122 0)
(0.475737 0.333942 0)
(0.410221 0.372677 0)
(0.331942 0.416009 0)
(0.247683 0.465281 0)
(0.154968 0.510066 0)
(0.0499525 0.55176 0)
(3 -2.68318e-16 0)
(3 -6.8232e-16 0)
(3 -1.20794e-15 0)
(3 -6.5152e-16 0)
(3 -3.27046e-16 0)
(3 -5.01556e-17 0)
(3 2.9877e-16 0)
(3 4.67863e-17 0)
(3 8.42869e-17 0)
(3 -8.33526e-17 0)
(3 -1.07941e-15 0)
(3 -1.38338e-15 0)
(3 -3.07703e-08 0)
(1.55768 0.357224 0)
(0.758579 0.349694 0)
(0.663226 0.33995 0)
(0.602938 0.352838 0)
(0.545088 0.372394 0)
(0.487408 0.402501 0)
(0.430067 0.449471 0)
(0.366704 0.504727 0)
(0.299654 0.563362 0)
(0.215967 0.621984 0)
(0.0925329 0.689634 0)
(3 1.03424e-16 0)
(3 4.43963e-16 0)
(3 5.27469e-16 0)
(3 5.73174e-16 0)
(3 8.76263e-16 0)
(3 8.19081e-16 0)
(3 8.77036e-16 0)
(3 8.21662e-16 0)
(3 5.69848e-16 0)
(3 8.19507e-17 0)
(3 -1.20234e-15 0)
(3 -1.90702e-15 0)
(3 -1.50908e-10 0)
(1.9916 0.396603 0)
(0.826133 0.432011 0)
(0.698615 0.40941 0)
(0.6415 0.41999 0)
(0.586709 0.437228 0)
(0.534525 0.466953 0)
(0.486169 0.516511 0)
(0.435262 0.577755 0)
(0.374609 0.658813 0)
(0.263893 0.780549 0)
(0.145457 0.948621 0)
(3 -4.9081e-18 0)
(3 5.12364e-18 0)
(3 2.36113e-16 0)
(3 8.48117e-17 0)
(3 3.86515e-17 0)
(3 2.7432e-16 0)
(3 6.73143e-16 0)
(3 6.83846e-16 0)
(3 7.01645e-16 0)
(3 -6.20693e-18 0)
(3 -4.12762e-16 0)
(3 9.06832e-17 0)
(3 -2.16179e-12 0)
(2.62174 0.311545 0)
(0.977779 0.506254 0)
(0.793409 0.452592 0)
(0.737921 0.464441 0)
(0.677338 0.486193 0)
(0.623195 0.517196 0)
(0.577322 0.569026 0)
(0.531899 0.644024 0)
(0.49109 0.765075 0)
(0.462138 0.935087 0)
(0.580533 1.21738 0)
(3 -2.66105e-16 0)
(3 -2.90066e-16 0)
(3 -5.58097e-16 0)
(3 -9.19343e-16 0)
(3 -1.1785e-15 0)
(3 -7.80215e-16 0)
(3 1.86358e-16 0)
(3 9.0648e-16 0)
(3 5.45146e-16 0)
(3 2.38329e-16 0)
(3 7.16762e-17 0)
(3 1.01946e-15 0)
(3 -4.38486e-13 0)
(3.07049 0.0456439 0)
(1.21154 0.495548 0)
(0.871546 0.500378 0)
(0.826771 0.528294 0)
(0.770619 0.545133 0)
(0.719115 0.572849 0)
(0.672669 0.627148 0)
(0.642436 0.713432 0)
(0.633394 0.839823 0)
(0.696243 0.980999 0)
(0.986068 1.15268 0)
(3 4.00307e-17 0)
(3 6.22283e-18 0)
(3 1.42983e-16 0)
(3 -1.79638e-16 0)
(3 -1.20442e-15 0)
(3 -1.43309e-15 0)
(3 -7.19279e-16 0)
(3 -4.56377e-17 0)
(3 -2.71845e-17 0)
(3 4.36847e-16 0)
(3 9.67202e-16 0)
(3 1.05162e-15 0)
(3 -9.63983e-14 0)
(3.00725 0.000272795 0)
(1.45953 0.495505 0)
(0.872681 0.568146 0)
(0.822412 0.587178 0)
(0.785016 0.606148 0)
(0.762387 0.636276 0)
(0.742981 0.684642 0)
(0.74699 0.759812 0)
(0.774559 0.86343 0)
(0.89402 0.976663 0)
(1.19881 1.07572 0)
(3 1.21319e-16 0)
(3 7.68194e-17 0)
(3 5.97073e-17 0)
(3 -3.31999e-16 0)
(3 -1.14697e-15 0)
(3 -7.21761e-16 0)
(3 2.97171e-17 0)
(3 -5.00298e-16 0)
(3 -5.46281e-16 0)
(3 4.25336e-17 0)
(3 1.12503e-15 0)
(3 1.13092e-15 0)
(3 -4.96112e-15 0)
(3.00004 -1.96535e-06 0)
(2.11621 0.510604 0)
(0.952627 0.637673 0)
(0.856561 0.618986 0)
(0.831894 0.638767 0)
(0.817097 0.668603 0)
(0.816651 0.713616 0)
(0.839431 0.781454 0)
(0.898056 0.869989 0)
(1.04168 0.959444 0)
(1.30096 1.01412 0)
(3 -6.30232e-17 0)
(3 2.19798e-16 0)
(3 -1.01578e-16 0)
(3 1.99551e-18 0)
(3 4.81997e-16 0)
(3 5.39198e-16 0)
(3 -1.14386e-16 0)
(3 -6.25576e-16 0)
(3 -1.96859e-19 0)
(3 1.95221e-16 0)
(3 9.12592e-17 0)
(3 1.36058e-16 0)
(3 -5.54076e-16 0)
(3 -9.63792e-07 0)
(2.9861 0.181012 0)
(1.20506 0.646546 0)
(0.951527 0.632626 0)
(0.918587 0.65954 0)
(0.897328 0.692974 0)
(0.895393 0.735567 0)
(0.920973 0.791241 0)
(0.994731 0.863713 0)
(1.13994 0.932169 0)
(1.35563 0.969232 0)
(3 -1.74102e-16 0)
(3 -1.46478e-16 0)
(3 -1.77714e-16 0)
(3 1.92441e-17 0)
(3 1.38568e-15 0)
(3 8.99461e-16 0)
(3 3.40952e-16 0)
(3 7.3773e-16 0)
(3 1.03662e-15 0)
(3 5.9108e-16 0)
(3 1.95083e-17 0)
(3 -7.37387e-16 0)
(3 -1.65455e-15 0)
(3 -1.464e-07 0)
(3.03706 0.00554243 0)
(1.49081 0.615982 0)
(0.988722 0.71303 0)
(0.956396 0.727169 0)
(0.9457 0.751884 0)
(0.957989 0.774221 0)
(0.992856 0.806552 0)
(1.06903 0.851049 0)
(1.19851 0.895486 0)
(1.36827 0.920896 0)
(3 2.41212e-18 0)
(3 -1.57622e-16 0)
(3 -3.74345e-16 0)
(3 -1.55555e-16 0)
(3 8.52194e-16 0)
(3 9.53461e-16 0)
(3 7.3412e-16 0)
(3 9.8077e-16 0)
(3 7.80216e-16 0)
(3 2.55395e-16 0)
(3 -3.52238e-16 0)
(3 -9.5553e-16 0)
(3 -1.84135e-15 0)
(3 -8.16831e-09 0)
(3.00057 1.11413e-05 0)
(2.23647 0.531625 0)
(1.09463 0.759846 0)
(1.00693 0.774837 0)
(1.01367 0.778405 0)
(1.02879 0.789933 0)
(1.06479 0.810896 0)
(1.13729 0.84369 0)
(1.24869 0.873821 0)
(1.38725 0.890667 0)
(3 4.55648e-17 0)
(3 -1.79525e-16 0)
(3 -8.82077e-17 0)
(3 1.23065e-16 0)
(3 9.04326e-17 0)
(3 1.30854e-16 0)
(3 8.852e-17 0)
(3 3.95098e-17 0)
(3 5.42472e-17 0)
(3 4.74598e-17 0)
(3 -1.64442e-16 0)
(3 -4.26899e-16 0)
(3 -3.49133e-16 0)
(3 -3.61637e-11 0)
(3.00002 -6.29552e-06 0)
(3.05137 0.107267 0)
(1.40743 0.761554 0)
(1.08984 0.781205 0)
(1.10368 0.789922 0)
(1.10842 0.809942 0)
(1.14052 0.822532 0)
(1.20096 0.837078 0)
(1.29356 0.853143 0)
(1.40714 0.861863 0)
(3 -2.36876e-17 0)
(3 -2.22788e-16 0)
(3 5.96264e-17 0)
(3 -3.95467e-17 0)
(3 -2.03182e-16 0)
(3 -1.08255e-16 0)
(3 -8.14894e-17 0)
(3 7.90064e-18 0)
(3 1.07925e-16 0)
(3 7.58054e-17 0)
(3 4.31996e-16 0)
(3 3.54293e-16 0)
(3 5.69875e-16 0)
(3 -2.47626e-14 0)
(3 -1.80751e-06 0)
(3.01425 0.0016001 0)
(1.96879 0.701968 0)
(1.15267 0.850207 0)
(1.14062 0.844226 0)
(1.16757 0.843639 0)
(1.20216 0.847045 0)
(1.25501 0.852257 0)
(1.33475 0.857545 0)
(1.42734 0.858535 0)
(3 2.91921e-17 0)
(3 3.07041e-16 0)
(3 6.94089e-16 0)
(3 1.19911e-16 0)
(3 2.10011e-17 0)
(3 -3.13554e-16 0)
(3 -2.38244e-16 0)
(3 -5.00165e-16 0)
(3 -5.74676e-16 0)
(3 -1.27757e-16 0)
(3 -1.71064e-16 0)
(3 1.29464e-17 0)
(3 7.56876e-16 0)
(3 1.81794e-15 0)
(3 -1.57533e-07 0)
(3.00008 1.12065e-05 0)
(2.96178 0.229832 0)
(1.43938 0.844481 0)
(1.19808 0.831616 0)
(1.23411 0.841053 0)
(1.26554 0.849707 0)
(1.31198 0.853655 0)
(1.37858 0.854663 0)
(1.45365 0.85296 0)
(3 7.90578e-17 0)
(3 4.21595e-16 0)
(3 2.39774e-16 0)
(3 -4.04273e-16 0)
(3 -5.03179e-16 0)
(3 -2.84473e-16 0)
(3 1.0427e-16 0)
(3 2.37746e-16 0)
(3 1.26564e-16 0)
(3 9.96324e-17 0)
(3 5.13217e-17 0)
(3 -1.12442e-16 0)
(3 7.93643e-16 0)
(3 1.29601e-15 0)
(3 -1.10511e-09 0)
(3 -6.73371e-07 0)
(3.02653 0.00697337 0)
(1.98566 0.746898 0)
(1.25272 0.888277 0)
(1.25189 0.882232 0)
(1.29486 0.880976 0)
(1.34198 0.881621 0)
(1.40282 0.878286 0)
(1.46855 0.871733 0)
(3 -1.59376e-16 0)
(3 -3.05563e-16 0)
(3 -4.55881e-16 0)
(3 -1.82132e-16 0)
(3 -6.7845e-16 0)
(3 -6.43168e-16 0)
(3 -5.72378e-16 0)
(3 1.14884e-16 0)
(3 9.67075e-16 0)
(3 6.33981e-16 0)
(3 4.22156e-16 0)
(3 4.82572e-16 0)
(3 -3.24899e-16 0)
(3 -3.29137e-17 0)
(3 -1.65828e-12 0)
(3 -1.22243e-07 0)
(3.00026 0.000118478 0)
(2.93349 0.247053 0)
(1.5559 0.894238 0)
(1.28959 0.873263 0)
(1.3384 0.875961 0)
(1.37958 0.879491 0)
(1.43388 0.876829 0)
(1.49308 0.870058 0)
(3 -2.66585e-17 0)
(3 -2.72498e-16 0)
(3 -6.23319e-17 0)
(3 7.21465e-16 0)
(3 5.26805e-16 0)
(3 -3.33806e-16 0)
(3 -3.40243e-16 0)
(3 3.10073e-16 0)
(3 9.7445e-16 0)
(3 4.91789e-16 0)
(3 1.75954e-16 0)
(3 2.55361e-16 0)
(3 4.25644e-17 0)
(3 3.7426e-16 0)
(3 1.2518e-15 0)
(3 -7.80691e-09 0)
(3 8.56368e-08 0)
(3.01935 0.010444 0)
(2.24178 0.72035 0)
(1.37464 0.927485 0)
(1.36231 0.918755 0)
(1.40521 0.909117 0)
(1.45145 0.900738 0)
(1.5064 0.890375 0)
(3 -2.65105e-17 0)
(3 -1.32669e-16 0)
(3 -3.25289e-16 0)
(3 -5.52816e-16 0)
(3 -1.44892e-16 0)
(3 3.45313e-16 0)
(3 4.50844e-16 0)
(3 4.0721e-16 0)
(3 5.82855e-16 0)
(3 6.17296e-16 0)
(3 8.20383e-16 0)
(3 1.87623e-16 0)
(3 -5.81242e-18 0)
(3 -3.25894e-16 0)
(3 1.00107e-15 0)
(3 -1.55537e-10 0)
(3 -1.35427e-10 0)
(3.00017 0.000201714 0)
(2.99511 0.157673 0)
(1.77349 0.874902 0)
(1.40283 0.924753 0)
(1.45177 0.911741 0)
(1.48777 0.90363 0)
(1.53668 0.891659 0)
(3 2.38475e-18 0)
(3 1.65911e-16 0)
(3 7.07077e-17 0)
(3 -3.6765e-16 0)
(3 -5.10902e-16 0)
(3 -4.21241e-16 0)
(3 -2.86468e-16 0)
(3 -6.5868e-17 0)
(3 5.94889e-17 0)
(3 7.19917e-16 0)
(3 5.10899e-16 0)
(3 8.74472e-16 0)
(3 7.33555e-16 0)
(3 1.978e-16 0)
(3 1.38936e-15 0)
(3 -5.93973e-13 0)
(3 -3.45698e-11 0)
(3 2.30987e-07 0)
(3.00651 0.00749718 0)
(2.60306 0.532747 0)
(1.57513 0.967861 0)
(1.47077 0.940085 0)
(1.52141 0.928993 0)
(1.56113 0.919093 0)
(3 7.17376e-17 0)
(3 -5.6102e-18 0)
(3 1.9566e-16 0)
(3 5.32152e-16 0)
(3 9.38953e-17 0)
(3 -1.73929e-16 0)
(3 2.01866e-16 0)
(3 1.01808e-16 0)
(3 1.32006e-16 0)
(3 8.1716e-16 0)
(3 6.2807e-16 0)
(3 9.82669e-16 0)
(3 1.46717e-15 0)
(3 1.58611e-15 0)
(3 1.22206e-15 0)
(3 1.92665e-15 0)
(3 -3.44244e-12 0)
(3 3.71319e-11 0)
(3.00002 8.21349e-05 0)
(3.01713 0.05746 0)
(2.13904 0.79444 0)
(1.54533 0.961973 0)
(1.54932 0.954725 0)
(1.5887 0.937267 0)
(3 7.3423e-17 0)
(3 -3.54387e-16 0)
(3 -2.66655e-16 0)
(3 -1.21e-16 0)
(3 -9.49026e-17 0)
(3 -2.61398e-16 0)
(3 3.18962e-16 0)
(3 1.47146e-16 0)
(3 3.31234e-16 0)
(3 7.44426e-16 0)
(3 9.12916e-16 0)
(3 5.85866e-16 0)
(3 6.60192e-16 0)
(3 6.5832e-16 0)
(3 6.89062e-16 0)
(3 3.44726e-15 0)
(3 -1.30368e-13 0)
(3 -3.93461e-13 0)
(3 6.71829e-08 0)
(3.0008 0.00229622 0)
(2.89418 0.253385 0)
(1.88131 0.894293 0)
(1.58999 0.967662 0)
(1.61875 0.95484 0)
(3 1.90294e-17 0)
(3 5.55244e-17 0)
(3 -1.56211e-16 0)
(3 -4.68554e-16 0)
(3 -1.02293e-15 0)
(3 -1.51702e-15 0)
(3 -1.36104e-15 0)
(3 -7.993e-16 0)
(3 -4.67025e-16 0)
(3 1.16878e-17 0)
(3 6.78689e-16 0)
(3 6.16786e-16 0)
(3 4.86085e-16 0)
(3 6.8143e-16 0)
(3 1.25746e-15 0)
(3 2.36349e-15 0)
(3 1.29892e-16 0)
(3 -2.86619e-13 0)
(3 1.46921e-11 0)
(3 9.1433e-06 0)
(3.00358 0.0166309 0)
(2.59473 0.511164 0)
(1.78332 0.95161 0)
(1.638 0.978885 0)
(3 1.02568e-16 0)
(3 6.03561e-16 0)
(3 -1.38513e-16 0)
(3 -3.95023e-16 0)
(3 -1.98053e-16 0)
(3 9.16017e-16 0)
(3 4.0507e-16 0)
(3 -5.07326e-16 0)
(3 -1.00926e-15 0)
(3 -1.24152e-15 0)
(3 1.90946e-16 0)
(3 1.72913e-15 0)
(3 1.91143e-15 0)
(3 1.46692e-15 0)
(3 7.64855e-16 0)
(3 9.43779e-16 0)
(3 1.98874e-15 0)
(3 -5.1694e-14 0)
(3 -2.02466e-13 0)
(3 5.10564e-09 0)
(2.99999 0.000284557 0)
(2.99087 0.059461 0)
(2.331 0.69905 0)
(1.74483 0.985721 0)
(3 9.03433e-18 0)
(3 -8.62671e-18 0)
(3 9.39571e-17 0)
(3 5.47893e-16 0)
(3 1.07043e-15 0)
(3 9.72622e-16 0)
(3 7.37501e-16 0)
(3 -5.61097e-17 0)
(3 -6.85102e-16 0)
(3 -1.20822e-15 0)
(3 -1.15075e-15 0)
(3 -1.3978e-16 0)
(3 4.66606e-16 0)
(3 9.28745e-16 0)
(3 9.25335e-16 0)
(3 6.16442e-16 0)
(3 1.01933e-15 0)
(3 -4.89523e-15 0)
(3 -9.86099e-14 0)
(3 8.56103e-13 0)
(3 4.21225e-07 0)
(2.99997 0.00230086 0)
(2.92258 0.161462 0)
(2.17456 0.80465 0)
(3 -4.28769e-17 0)
(3 -4.62331e-16 0)
(3 3.81016e-16 0)
(3 1.00549e-15 0)
(3 9.54365e-16 0)
(3 2.07415e-16 0)
(3 1.51109e-16 0)
(3 6.11586e-16 0)
(3 2.43868e-16 0)
(3 -9.75121e-16 0)
(3 -1.15242e-15 0)
(3 -1.2742e-15 0)
(3 -5.414e-16 0)
(3 7.27081e-16 0)
(3 1.11186e-15 0)
(3 5.02763e-16 0)
(3 5.75409e-16 0)
(3 7.26855e-16 0)
(3 -1.81278e-14 0)
(3 -1.82564e-14 0)
(3 2.05358e-10 0)
(3 8.83777e-06 0)
(2.99882 0.00916846 0)
(2.80963 0.305881 0)
(3 -1.30262e-17 0)
(3 -2.47496e-17 0)
(3 8.30875e-17 0)
(3 1.74665e-17 0)
(3 1.74454e-16 0)
(3 6.14796e-16 0)
(3 4.68136e-16 0)
(3 4.35122e-16 0)
(3 -3.84437e-16 0)
(3 -1.51045e-15 0)
(3 -1.39548e-15 0)
(3 -1.22777e-15 0)
(3 -1.49115e-15 0)
(3 -9.13833e-16 0)
(3 6.40489e-16 0)
(3 1.03412e-15 0)
(3 9.32893e-16 0)
(3 8.66743e-16 0)
(3 -4.25657e-16 0)
(3 -4.5747e-15 0)
(3 1.50945e-14 0)
(3 7.44157e-09 0)
(2.99998 8.41147e-05 0)
(2.99391 0.0245925 0)
(3 -2.16997e-17 0)
(3 2.91945e-16 0)
(3 -2.44362e-16 0)
(3 -1.3367e-16 0)
(3 -3.73959e-16 0)
(3 -9.03981e-16 0)
(3 -3.70785e-16 0)
(3 -6.76766e-16 0)
(3 -1.14843e-15 0)
(3 -1.61063e-15 0)
(3 -1.34298e-15 0)
(3 -5.86831e-16 0)
(3 -1.24956e-15 0)
(3 -1.51157e-15 0)
(3 -1.21539e-15 0)
(3 -4.78845e-16 0)
(3 -7.04189e-18 0)
(3 1.06962e-17 0)
(3 6.33986e-16 0)
(3 -4.94488e-16 0)
(3 -5.33738e-16 0)
(3 1.38712e-12 0)
(3 1.10497e-07 0)
(2.99989 0.000454016 0)
(3 1.43093e-16 0)
(3 -2.21871e-16 0)
(3 -5.17646e-16 0)
(3 -6.49246e-16 0)
(3 -5.18961e-16 0)
(3 -1.57404e-16 0)
(3 -3.60247e-16 0)
(3 -4.30612e-16 0)
(3 -5.64961e-16 0)
(3 -5.83648e-16 0)
(3 -8.22149e-16 0)
(3 -8.31988e-16 0)
(3 -1.0864e-15 0)
(3 -1.36863e-15 0)
(3 -2.23899e-15 0)
(3 -2.46596e-15 0)
(3 -1.61674e-15 0)
(3 -4.33633e-16 0)
(3 -5.75985e-16 0)
(3 -1.21965e-15 0)
(3 -9.25554e-16 0)
(3 -1.70228e-16 0)
(3 3.98032e-11 0)
(3 9.26617e-07 0)
(3 -9.56784e-17 0)
(3 -4.21453e-16 0)
(3 -2.97785e-16 0)
(3 -3.58863e-16 0)
(3 -2.58811e-16 0)
(3 2.20907e-16 0)
(3 -7.70282e-17 0)
(3 5.57166e-16 0)
(3 8.07047e-16 0)
(3 8.805e-16 0)
(3 -4.05576e-16 0)
(3 -1.17828e-15 0)
(3 -1.24927e-15 0)
(3 -1.67786e-15 0)
(3 -1.57714e-15 0)
(3 -1.33142e-15 0)
(3 -1.61111e-15 0)
(3 -1.95256e-15 0)
(3 -1.62321e-15 0)
(3 -8.48133e-16 0)
(3 1.37498e-16 0)
(3 6.34317e-16 0)
(3 4.2778e-15 0)
(3 5.55668e-10 0)
(3 2.04333e-17 0)
(3 -7.73528e-17 0)
(3 5.98407e-16 0)
(3 8.98098e-16 0)
(3 1.0574e-15 0)
(3 7.1993e-16 0)
(3 9.20927e-16 0)
(3 1.5129e-15 0)
(3 1.16227e-15 0)
(3 3.48167e-16 0)
(3 2.56352e-16 0)
(3 1.90004e-16 0)
(3 -1.96903e-16 0)
(3 -6.96247e-16 0)
(3 -4.56564e-16 0)
(3 -4.52008e-16 0)
(3 -9.69165e-16 0)
(3 -1.91461e-15 0)
(3 -2.31565e-15 0)
(3 -1.72554e-15 0)
(3 -9.50325e-16 0)
(3 2.86254e-16 0)
(3 -1.32366e-16 0)
(3 4.19647e-14 0)
(3 1.65903e-17 0)
(3 7.80603e-17 0)
(3 1.07899e-16 0)
(3 2.92249e-16 0)
(3 8.16438e-16 0)
(3 1.06816e-15 0)
(3 8.21326e-16 0)
(3 3.72106e-16 0)
(3 -1.21684e-16 0)
(3 -1.17334e-15 0)
(3 -1.10499e-15 0)
(3 -6.56119e-16 0)
(3 -4.89408e-16 0)
(3 1.59782e-16 0)
(3 3.93807e-16 0)
(3 -4.73147e-16 0)
(3 -5.82939e-16 0)
(3 -1.32515e-15 0)
(3 -2.36867e-15 0)
(3 -2.33715e-15 0)
(3 -1.06001e-15 0)
(3 -1.09405e-15 0)
(3 -2.18268e-15 0)
(3 -1.9896e-15 0)
(3 -6.15593e-18 0)
(3 5.81846e-16 0)
(3 3.81966e-16 0)
(3 5.64954e-17 0)
(3 4.43264e-17 0)
(3 4.24552e-16 0)
(3 2.17959e-16 0)
(3 -2.12775e-16 0)
(3 -3.86335e-16 0)
(3 -3.464e-16 0)
(3 -7.43561e-16 0)
(3 -7.46405e-16 0)
(3 -8.79678e-16 0)
(3 -3.03241e-16 0)
(3 3.73625e-16 0)
(3 -5.90369e-18 0)
(3 -6.71154e-16 0)
(3 -1.97684e-15 0)
(3 -2.14912e-15 0)
(3 -1.61008e-15 0)
(3 -1.22845e-15 0)
(3 -1.13983e-15 0)
(3 -1.71425e-15 0)
(3 -1.55758e-15 0)
(3 2.52826e-16 0)
(3 3.88316e-16 0)
(3 4.25003e-16 0)
(3 2.61422e-16 0)
(3 8.59396e-18 0)
(3 2.27068e-16 0)
(3 5.14182e-17 0)
(3 1.51039e-16 0)
(3 3.10344e-16 0)
(3 7.2479e-16 0)
(3 5.68297e-16 0)
(3 3.44452e-16 0)
(3 5.19266e-16 0)
(3 5.19107e-16 0)
(3 5.51435e-16 0)
(3 4.09928e-16 0)
(3 -7.95109e-16 0)
(3 -1.34135e-15 0)
(3 -1.35357e-15 0)
(3 -1.39587e-15 0)
(3 -1.44844e-15 0)
(3 -1.21769e-15 0)
(3 -1.46056e-15 0)
(3 -1.79427e-15 0)
(3 7.3081e-17 0)
(3 1.39577e-16 0)
(3 -5.68001e-16 0)
(3 -4.14479e-16 0)
(3 -7.1682e-16 0)
(3 -3.03385e-16 0)
(3 -4.30016e-16 0)
(3 -4.91473e-16 0)
(3 -3.34931e-16 0)
(3 1.79293e-17 0)
(3 8.19315e-16 0)
(3 3.86159e-16 0)
(3 1.30792e-15 0)
(3 1.59955e-15 0)
(3 1.73113e-15 0)
(3 2.99512e-16 0)
(3 -1.09809e-15 0)
(3 -1.08624e-15 0)
(3 -8.04034e-16 0)
(3 -5.17166e-16 0)
(3 -2.12141e-16 0)
(3 -2.9179e-16 0)
(3 -9.13816e-16 0)
(3 -1.08587e-15 0)
(3 -3.1087e-16 0)
(3 -5.86654e-16 0)
(3 -4.85317e-16 0)
(3 -1.52508e-17 0)
(3 5.9535e-16 0)
(3 2.46825e-16 0)
(3 -3.5063e-16 0)
(3 -1.21838e-15 0)
(3 -1.25419e-15 0)
(3 -8.14127e-16 0)
(3 -1.47041e-16 0)
(3 1.72605e-16 0)
(3 9.17484e-16 0)
(3 8.22497e-16 0)
(3 4.49135e-16 0)
(3 -1.18867e-15 0)
(3 -1.58622e-15 0)
(3 -1.80607e-15 0)
(3 -8.01908e-16 0)
(3 5.58259e-16 0)
(3 9.19775e-16 0)
(3 6.36299e-16 0)
(3 8.98003e-17 0)
(3 -2.83038e-16 0)
(3 -1.99961e-17 0)
(3 -5.24388e-16 0)
(3 -1.53227e-16 0)
(3 7.07579e-16 0)
(3 1.29083e-15 0)
(3 5.43204e-16 0)
(3 1.77166e-16 0)
(3 -1.25428e-16 0)
(3 -2.5543e-16 0)
(3 -3.63235e-16 0)
(3 -4.03738e-16 0)
(3 1.3465e-17 0)
(3 3.05682e-16 0)
(3 4.18192e-16 0)
(3 -4.81732e-16 0)
(3 -1.30436e-15 0)
(3 -1.07311e-15 0)
(3 -3.08966e-16 0)
(3 8.91988e-17 0)
(3 5.23874e-16 0)
(3 9.36361e-16 0)
(3 1.10043e-15 0)
(3 8.39644e-16 0)
(3 5.26828e-16 0)
(1.53344 1.27444 0)
(2.12058 1.32184 0)
(2.37717 1.54776 0)
(2.39936 0.745231 0)
(2.50388 0.317911 0)
(2.6202 -0.0376899 0)
(2.69258 -0.191906 0)
(2.71811 -0.232258 0)
(2.61462 -0.241863 0)
(2.56541 -0.318934 0)
(2.58351 -0.349975 0)
(2.60499 -0.284916 0)
(2.60416 -0.19283 0)
(2.5579 -0.115832 0)
(2.4851 -0.100238 0)
(2.4435 -0.103414 0)
(2.48963 -0.0651782 0)
(2.51917 -0.026278 0)
(2.51482 -0.00972669 0)
(2.51152 -0.0118825 0)
(2.52026 -0.0181807 0)
(2.53584 -0.0181853 0)
(2.53893 -0.011243 0)
(2.53643 -0.00429016 0)
(2.5309 -0.00383676 0)
(2.52938 -0.00371206 0)
(2.53325 -0.0037549 0)
(2.54257 -0.0050011 0)
(2.55331 -0.00518184 0)
(2.55491 -0.00442113 0)
(2.55211 -0.00373055 0)
(2.54671 -0.00435246 0)
(2.54988 -0.00527333 0)
(2.55749 -0.00494082 0)
(2.56386 -0.00320456 0)
(2.57209 -0.00165509 0)
(2.5879 -0.00259712 0)
(2.59896 -0.00473636 0)
(2.60486 -0.00613832 0)
(2.61404 -0.00638323 0)
(2.61724 -0.00243481 0)
(2.62029 0.00167088 0)
(2.62961 0.00186237 0)
(2.63899 0.000744725 0)
(2.64987 -0.000479117 0)
(2.66153 -0.00126361 0)
(2.67172 -0.00180637 0)
(2.68165 -0.00269188 0)
(2.69197 -0.00341733 0)
(2.69951 -0.00354094 0)
(2.70278 -0.00227825 0)
(2.70698 -0.00123059 0)
(2.71442 -0.000579052 0)
(2.72377 0.000690242 0)
(2.73395 0.00179013 0)
(2.74474 0.00287435 0)
(2.75553 0.00386909 0)
(2.76338 0.00585009 0)
(2.77458 0.00345797 0)
(2.77184 -0.00840909 0)
(2.75405 -0.0458534 0)
(2.70658 -0.115481 0)
(2.64682 -0.197323 0)
(2.57577 -0.27892 0)
(2.52348 -0.325638 0)
(2.49562 -0.352708 0)
(2.48964 -0.367462 0)
(2.48715 -0.329806 0)
(2.48642 -0.304106 0)
(2.47548 -0.270321 0)
(2.46401 -0.234363 0)
(2.46565 -0.193234 0)
(2.47561 -0.145499 0)
(2.50358 -0.0964078 0)
(2.52571 -0.0598297 0)
(2.54878 -0.0374354 0)
(2.57854 -0.0228764 0)
(2.61448 -0.00308411 0)
(2.64126 0.0136735 0)
(2.65898 0.022831 0)
(2.67303 0.0334094 0)
(2.67846 0.041553 0)
(2.68702 0.0408206 0)
(2.70567 0.0366309 0)
(2.73038 0.0331669 0)
(2.75466 0.0324347 0)
(2.77493 0.0358259 0)
(2.78799 0.041074 0)
(2.79003 0.0436777 0)
(2.78281 0.0416061 0)
(2.79358 0.0361898 0)
(2.80785 0.0348534 0)
(2.82365 0.0349653 0)
(2.84005 0.0352124 0)
(2.85427 0.0359358 0)
(2.87557 0.0325562 0)
(1.7887 1.1183 0)
(2.34256 0.723464 0)
(2.57706 0.423942 0)
(2.67334 0.201293 0)
(2.77031 -0.205072 0)
(2.7507 -0.541335 0)
(2.77192 -0.564256 0)
(2.81374 -0.562416 0)
(2.81327 -0.517916 0)
(2.78256 -0.48548 0)
(2.75043 -0.432959 0)
(2.69329 -0.319095 0)
(2.63476 -0.246624 0)
(2.59433 -0.176412 0)
(2.5632 -0.0934199 0)
(2.53539 -0.0725698 0)
(2.53569 -0.0472606 0)
(2.55144 0.0110696 0)
(2.55896 0.0338764 0)
(2.5443 0.0230373 0)
(2.54506 -0.00172009 0)
(2.55115 -0.00578068 0)
(2.55067 0.000399499 0)
(2.54517 -0.00010014 0)
(2.54331 -0.00367569 0)
(2.54626 -0.00168845 0)
(2.5505 -0.00196339 0)
(2.55547 -0.00825078 0)
(2.56475 -0.0128756 0)
(2.56759 -0.0124664 0)
(2.56739 -0.0109574 0)
(2.56374 -0.0111075 0)
(2.56522 -0.012706 0)
(2.57279 -0.0117823 0)
(2.58152 -0.00623179 0)
(2.58981 0.00157564 0)
(2.603 0.0040863 0)
(2.61284 0.000988256 0)
(2.62149 -0.00412105 0)
(2.63106 -0.0124278 0)
(2.63506 -0.0121103 0)
(2.63398 -0.00325785 0)
(2.63988 0.00024229 0)
(2.64976 -0.00143597 0)
(2.66032 -0.00590626 0)
(2.67302 -0.00648292 0)
(2.68541 -0.00600339 0)
(2.69702 -0.0079178 0)
(2.70829 -0.0112914 0)
(2.71708 -0.0120492 0)
(2.72067 -0.00772019 0)
(2.72098 -0.000488542 0)
(2.724 0.00501945 0)
(2.73263 0.00864597 0)
(2.74227 0.00930491 0)
(2.75348 0.0104625 0)
(2.76674 0.00387611 0)
(2.76644 -0.0157306 0)
(2.74863 -0.0761432 0)
(2.70866 -0.204426 0)
(2.67498 -0.332299 0)
(2.62189 -0.496056 0)
(2.60856 -0.599327 0)
(2.59859 -0.665669 0)
(2.59317 -0.681752 0)
(2.5793 -0.646286 0)
(2.5475 -0.573735 0)
(2.53046 -0.492643 0)
(2.5327 -0.391949 0)
(2.5374 -0.276211 0)
(2.53538 -0.170949 0)
(2.53352 -0.0802647 0)
(2.53442 -0.00840988 0)
(2.54596 0.0444063 0)
(2.56166 0.0704222 0)
(2.57916 0.0753206 0)
(2.60724 0.0667063 0)
(2.62667 0.0612736 0)
(2.64914 0.0675513 0)
(2.67003 0.0777427 0)
(2.6816 0.0899358 0)
(2.69079 0.0993473 0)
(2.70532 0.0950235 0)
(2.72311 0.084504 0)
(2.74435 0.0738143 0)
(2.76565 0.0651817 0)
(2.78526 0.0595436 0)
(2.80109 0.0542921 0)
(2.80973 0.0457566 0)
(2.80592 0.0342816 0)
(2.80989 0.0186993 0)
(2.82114 0.0181777 0)
(2.83683 0.0259782 0)
(2.84909 0.0330785 0)
(2.86187 0.0256125 0)
(2.8799 0.0164114 0)
(1.71795 1.01919 0)
(2.01097 0.929897 0)
(2.35386 0.629361 0)
(2.59494 0.314164 0)
(2.69242 0.156356 0)
(2.71881 -0.0890753 0)
(2.7417 -0.133025 0)
(2.75183 -0.131536 0)
(2.85139 -0.25219 0)
(2.85251 -0.401552 0)
(2.85299 -0.45765 0)
(2.82777 -0.452152 0)
(2.77063 -0.45897 0)
(2.74857 -0.40247 0)
(2.74886 -0.309751 0)
(2.75159 -0.257614 0)
(2.71484 -0.188481 0)
(2.63782 -0.0787857 0)
(2.62956 -0.0226411 0)
(2.61158 -0.0327161 0)
(2.60442 -0.030486 0)
(2.60521 -0.0210145 0)
(2.60533 0.0146219 0)
(2.60212 0.0221877 0)
(2.59937 0.0070947 0)
(2.60339 -0.00322897 0)
(2.60394 -0.00588518 0)
(2.59998 -0.0151329 0)
(2.59949 -0.024342 0)
(2.60221 -0.0238692 0)
(2.60204 -0.0180167 0)
(2.59581 -0.0173806 0)
(2.59779 -0.0189033 0)
(2.60306 -0.0183131 0)
(2.61168 -0.011357 0)
(2.62332 -0.000553784 0)
(2.63337 0.000896127 0)
(2.63821 -0.00190004 0)
(2.64599 -0.00479784 0)
(2.65257 -0.00382412 0)
(2.65648 -0.0050622 0)
(2.65924 -0.007017 0)
(2.66355 -0.00569934 0)
(2.67258 -0.00704597 0)
(2.6822 -0.00943634 0)
(2.69278 -0.0104119 0)
(2.70469 -0.00830466 0)
(2.71589 -0.00573183 0)
(2.72592 -0.00587816 0)
(2.73422 -0.00668719 0)
(2.74035 -0.00591732 0)
(2.74492 -0.00109649 0)
(2.74519 0.0090476 0)
(2.75373 0.0135752 0)
(2.75462 0.00252337 0)
(2.75252 -0.0284174 0)
(2.73431 -0.10129 0)
(2.70393 -0.223041 0)
(2.6368 -0.386937 0)
(2.62586 -0.4776 0)
(2.55913 -0.613909 0)
(2.54675 -0.690014 0)
(2.56196 -0.679597 0)
(2.57318 -0.698439 0)
(2.58 -0.708678 0)
(2.59211 -0.708395 0)
(2.59807 -0.685964 0)
(2.61463 -0.656078 0)
(2.6321 -0.630882 0)
(2.64064 -0.595496 0)
(2.64795 -0.546354 0)
(2.65537 -0.473602 0)
(2.66787 -0.385928 0)
(2.682 -0.30429 0)
(2.69631 -0.231814 0)
(2.71032 -0.177545 0)
(2.71676 -0.125079 0)
(2.70095 -0.0748185 0)
(2.69719 -0.0295846 0)
(2.70223 0.0178007 0)
(2.69743 0.056125 0)
(2.70902 0.0895479 0)
(2.72282 0.107627 0)
(2.73504 0.10806 0)
(2.74766 0.103776 0)
(2.76026 0.103897 0)
(2.77514 0.1087 0)
(2.7924 0.111887 0)
(2.80562 0.108827 0)
(2.81395 0.105926 0)
(2.81979 0.0923133 0)
(2.82629 0.0852801 0)
(2.83699 0.086675 0)
(2.8491 0.0850978 0)
(2.85658 0.0861252 0)
(2.87041 0.0807965 0)
(1.62589 0.996073 0)
(1.91042 0.885522 0)
(2.20313 0.665141 0)
(2.36853 0.53408 0)
(2.44939 0.442836 0)
(2.60244 0.190389 0)
(2.69142 -0.0309612 0)
(2.7154 -0.0944024 0)
(2.78471 -0.255003 0)
(2.80063 -0.377689 0)
(2.81186 -0.395491 0)
(2.83156 -0.456088 0)
(2.83273 -0.492013 0)
(2.83308 -0.483469 0)
(2.83228 -0.453756 0)
(2.83131 -0.419469 0)
(2.79538 -0.368273 0)
(2.73273 -0.260337 0)
(2.71371 -0.173508 0)
(2.71107 -0.162167 0)
(2.6949 -0.135258 0)
(2.66639 -0.104853 0)
(2.66135 -0.0478026 0)
(2.66197 -0.0316511 0)
(2.66402 -0.026848 0)
(2.65657 0.0043775 0)
(2.64882 0.0186664 0)
(2.63847 0.0182131 0)
(2.63575 0.0121306 0)
(2.63703 0.00873601 0)
(2.64126 0.0078672 0)
(2.63457 -0.000704001 0)
(2.63686 -0.0134364 0)
(2.63929 -0.0220152 0)
(2.64771 -0.0214248 0)
(2.65841 -0.0157768 0)
(2.66482 -0.00929523 0)
(2.66761 -0.00845873 0)
(2.66989 -0.0084749 0)
(2.67265 -0.00701564 0)
(2.67657 -0.00167567 0)
(2.68093 0.00151817 0)
(2.68798 0.00375906 0)
(2.69651 0.0031037 0)
(2.70354 0.000978949 0)
(2.71013 -0.00101731 0)
(2.71919 -0.00076302 0)
(2.73011 -0.000221815 0)
(2.74093 -0.00140217 0)
(2.74969 -0.00204453 0)
(2.75623 -0.0035319 0)
(2.76185 0.000643116 0)
(2.7606 -0.0119246 0)
(2.75747 -0.0420913 0)
(2.7301 -0.122265 0)
(2.70173 -0.245307 0)
(2.6234 -0.424884 0)
(2.61291 -0.499928 0)
(2.55583 -0.613679 0)
(2.53015 -0.688153 0)
(2.53549 -0.663866 0)
(2.54898 -0.665598 0)
(2.55687 -0.673455 0)
(2.56548 -0.685176 0)
(2.57886 -0.685314 0)
(2.59511 -0.675247 0)
(2.61183 -0.658624 0)
(2.62932 -0.65667 0)
(2.64631 -0.660657 0)
(2.6619 -0.660847 0)
(2.67205 -0.653545 0)
(2.67094 -0.633976 0)
(2.67899 -0.592041 0)
(2.68863 -0.558466 0)
(2.69902 -0.510577 0)
(2.71243 -0.450988 0)
(2.72091 -0.38194 0)
(2.72093 -0.307718 0)
(2.72135 -0.235564 0)
(2.73016 -0.170648 0)
(2.72875 -0.104831 0)
(2.74114 -0.0581407 0)
(2.74134 -0.0143027 0)
(2.74833 0.0158736 0)
(2.74893 0.035627 0)
(2.75661 0.0546183 0)
(2.76345 0.0783565 0)
(2.78434 0.100135 0)
(2.79825 0.115497 0)
(2.80854 0.128918 0)
(2.81492 0.133588 0)
(2.81826 0.135087 0)
(2.82142 0.137989 0)
(2.82482 0.141134 0)
(2.8298 0.144709 0)
(2.84949 0.1337 0)
(1.58854 0.959057 0)
(1.85072 0.85723 0)
(2.06137 0.726464 0)
(2.17874 0.666564 0)
(2.34957 0.500305 0)
(2.49667 0.279115 0)
(2.55651 0.214375 0)
(2.59085 0.147066 0)
(2.66405 -0.00939841 0)
(2.70875 -0.160114 0)
(2.7248 -0.184999 0)
(2.7342 -0.223287 0)
(2.76476 -0.326812 0)
(2.79408 -0.342897 0)
(2.80875 -0.369018 0)
(2.79858 -0.391982 0)
(2.79406 -0.411956 0)
(2.78398 -0.387951 0)
(2.77141 -0.340145 0)
(2.76457 -0.298879 0)
(2.75205 -0.266072 0)
(2.71519 -0.199098 0)
(2.70063 -0.125699 0)
(2.70512 -0.111803 0)
(2.71602 -0.101061 0)
(2.69851 -0.053933 0)
(2.68849 -0.0151035 0)
(2.67294 -0.0161149 0)
(2.65947 -0.0121614 0)
(2.65878 -0.00427648 0)
(2.6574 0.0130626 0)
(2.65799 0.0229794 0)
(2.66035 0.0172065 0)
(2.6632 0.0064555 0)
(2.67006 -0.000417522 0)
(2.67914 0.00189909 0)
(2.6854 0.000907844 0)
(2.68848 -0.0081796 0)
(2.68629 -0.0156255 0)
(2.68446 -0.0180116 0)
(2.6879 -0.0169667 0)
(2.69274 -0.0131242 0)
(2.69992 -0.00687083 0)
(2.70829 -0.00125154 0)
(2.71571 0.00404939 0)
(2.72072 0.00996181 0)
(2.72629 0.0149781 0)
(2.73506 0.0196318 0)
(2.74797 0.0169459 0)
(2.75792 0.00909453 0)
(2.75822 -0.0140669 0)
(2.75601 -0.0414662 0)
(2.72295 -0.118011 0)
(2.68211 -0.254101 0)
(2.59637 -0.454321 0)
(2.60467 -0.52207 0)
(2.53757 -0.64569 0)
(2.51833 -0.695988 0)
(2.52392 -0.680543 0)
(2.52781 -0.666443 0)
(2.53222 -0.660151 0)
(2.53786 -0.671134 0)
(2.55427 -0.673208 0)
(2.57165 -0.667498 0)
(2.5838 -0.652274 0)
(2.59642 -0.643591 0)
(2.61725 -0.637762 0)
(2.63878 -0.637071 0)
(2.6585 -0.642503 0)
(2.67302 -0.644082 0)
(2.68432 -0.641585 0)
(2.69035 -0.634286 0)
(2.68946 -0.618047 0)
(2.69726 -0.607304 0)
(2.71515 -0.602065 0)
(2.73705 -0.601108 0)
(2.74776 -0.587411 0)
(2.75989 -0.561575 0)
(2.76508 -0.511366 0)
(2.76605 -0.442962 0)
(2.76817 -0.372614 0)
(2.76272 -0.287446 0)
(2.75951 -0.208433 0)
(2.76176 -0.144379 0)
(2.75721 -0.0855293 0)
(2.75604 -0.0393755 0)
(2.76121 -0.00379724 0)
(2.78599 0.0045423 0)
(2.80329 0.025071 0)
(2.81921 0.0509544 0)
(2.81949 0.0727322 0)
(2.81822 0.0900215 0)
(2.81332 0.102276 0)
(2.80846 0.117217 0)
(2.81603 0.126174 0)
(2.83901 0.138632 0)
(1.56609 0.910902 0)
(1.77278 0.848837 0)
(1.94107 0.780174 0)
(2.07634 0.709262 0)
(2.23961 0.575914 0)