/*--------------------------------*- C++ -*----------------------------------*\
  =========                 |
  \\      /  F ield         | OpenFOAM: The Open Source CFD Toolbox
   \\    /   O peration     | Website:  https://openfoam.org
    \\  /    A nd           | Version:  7
     \\/     M anipulation  |
\*---------------------------------------------------------------------------*/
FoamFile
{
    version     2.0;
    format      ascii;
    class       volScalarField;
    location    "3.4";
    object      p;
}
// * * * * * * * * * * * * * * * * * * * * * * * * * * * * * * * * * * * * * //

dimensions      [1 -1 -2 0 0 0 0];

internalField   nonuniform List<scalar> 
258048
(
1
1
1
1
1
1
1
1
1
1
1
1
1
1
1
1
1
1
1
1
1
1
1
1
1
1
1
1
1
1
1
1
1
1
1
1
1
1
1
1
1
1
1
1
1
1
1
1
1
1
1
1
1
1
1
1
1
1
1
1
1
1
1
1
1
1
1
1
1
1
1
1
1
1
1
1
1
1
1
1
1
1
1
1
1
1
1
1
1
1
1
1
1
1
1
1
1
1
3.3702
9.652
10.3739
10.4365
10.4804
10.5021
10.5109
10.5135
10.5225
10.5477
10.5921
10.6485
10.7032
10.742
10.7629
10.7749
10.791
10.818
10.8535
10.8894
10.9194
10.9427
10.9642
10.9891
11.0166
11.0415
11.0608
11.0785
11.1037
11.1385
11.1774
11.2128
11.2367
11.2478
11.2541
11.2662
11.2887
11.3193
11.3526
11.382
11.4039
11.4196
11.433
11.4473
11.4647
11.4864
11.5137
11.5455
11.577
11.6007
11.612
11.6131
11.6114
11.6152
11.6326
11.6647
11.703
11.7364
11.7575
11.7677
11.7749
11.7857
11.8007
11.8141
11.8211
11.8266
11.8364
11.8527
11.8774
11.9042
11.9209
11.9223
11.9167
11.9146
11.925
11.9492
11.9763
11.993
11.9962
11.991
11.9827
11.9795
11.988
12.0033
12.0173
12.0278
12.0359
12.0432
12.0497
12.0531
12.0506
12.0428
12.0326
12.0278
1
1
1
1
1
1
1
1
1
1
1
1
1
1
1
1
1
1
1
1
1
1
1
1
1
1
1
1
1
1
1
1
1
1
1
1
1
1
1
1
1
1
1
1
1
1
1
1
1
1
1
1
1
1
1
1
1
1
1
1
1
1
1
1
1
1
1
1
1
1
1
1
1
1
1
1
1
1
1
1
1
1
1
1
1
1
1
1
1
1
1
1
1
1
1
1
1
1
3.35518
9.66151
10.3625
10.4274
10.4752
10.501
10.5128
10.5173
10.5263
10.5508
10.594
10.6486
10.7023
10.7422
10.7647
10.7773
10.7922
10.8163
10.8487
10.8833
10.9145
10.9406
10.9645
10.9901
11.017
11.0409
11.06
11.0783
11.1046
11.1396
11.1786
11.2136
11.2367
11.2467
11.2525
11.265
11.2889
11.321
11.3548
11.3831
11.4027
11.4162
11.4293
11.4453
11.4653
11.4893
11.5169
11.5468
11.5751
11.5965
11.6079
11.611
11.6118
11.6181
11.6367
11.6676
11.7036
11.7347
11.7547
11.7652
11.7732
11.7844
11.7993
11.8125
11.8202
11.8268
11.8377
11.8548
11.8787
11.9031
11.9178
11.9191
11.9149
11.9148
11.9266
11.9504
11.9755
11.9903
11.9935
11.9899
11.9837
11.9817
11.989
12.0018
12.014
12.025
12.0348
12.0435
12.0504
12.0529
12.0494
12.0413
12.0319
12.0278
1
1
1
1
1
1
1
1
1
1
1
1
1
1
1
1
1
1
1
1
1
1
1
1
1
1
1
1
1
1
1
1
1
1
1
1
1
1
1
1
1
1
1
1
1
1
1
1
1
1
1
1
1
1
1
1
1
1
1
1
1
1
1
1
1
1
1
1
1
1
1
1
1
1
1
1
1
1
1
1
1
1
1
1
1
1
1
1
1
1
1
1
1
1
1
1
1
1
3.32005
9.66159
10.355
10.4175
10.4695
10.4996
10.516
10.5235
10.5325
10.5546
10.5947
10.6469
10.6995
10.7408
10.766
10.7805
10.7944
10.815
10.8431
10.8753
10.9079
10.9376
10.9649
10.9918
11.0178
11.0398
11.0576
11.0766
11.1049
11.1413
11.1811
11.2157
11.2374
11.2454
11.2496
11.2617
11.2873
11.3219
11.3574
11.3852
11.4022
11.4124
11.4235
11.4404
11.4636
11.4912
11.5205
11.5488
11.5733
11.591
11.6012
11.606
11.6102
11.6207
11.6418
11.672
11.7049
11.7325
11.7505
11.7611
11.7704
11.783
11.7981
11.8104
11.818
11.8258
11.838
11.857
11.8809
11.9029
11.9145
11.9144
11.9111
11.9139
11.9286
11.9527
11.975
11.9865
11.9886
11.9866
11.9834
11.9847
11.992
12.0013
12.01
12.0203
12.0319
12.0432
12.0512
12.053
12.0482
12.0393
12.0308
12.0278
1
1
1
1
1
1
1
1
1
1
1
1
1
1
1
1
1
1
1
1
1
1
1
1
1
1
1
1
1
1
1
1
1
1
1
1
1
1
1
1
1
1
1
1
1
1
1
1
1
1
1
1
1
1
1
1
1
1
1
1
1
1
1
1
1
1
1
1
1
1
1
1
1
1
1
1
1
1
1
1
1
1
1
1
1
1
1
1
1
1
1
1
1
1
1
1
1
1
3.26485
9.65476
10.3511
10.4037
10.4599
10.4961
10.5197
10.5325
10.5415
10.5596
10.5945
10.6438
10.6959
10.7389
10.767
10.7831
10.7953
10.8116
10.8353
10.8659
10.9005
10.9347
10.9659
10.9942
11.0186
11.0375
11.0527
11.0725
11.1038
11.1428
11.1841
11.2184
11.238
11.2432
11.2458
11.2577
11.2856
11.3228
11.3596
11.3864
11.4005
11.4078
11.4178
11.4365
11.4635
11.4943
11.5239
11.5493
11.5693
11.5835
11.5932
11.6007
11.61
11.6257
11.6492
11.6776
11.7054
11.7279
11.7434
11.7547
11.7666
11.782
11.798
11.8089
11.8152
11.8235
11.8374
11.8585
11.8831
11.9028
11.9111
11.909
11.9063
11.9121
11.9303
11.9549
11.9742
11.9823
11.9831
11.9822
11.9825
11.9876
11.995
12.0006
12.0057
12.0146
12.0278
12.042
12.0515
12.0526
12.0465
12.0368
12.0288
12.0269
1
1
1
1
1
1
1
1
1
1
1
1
1
1
1
1
1
1
1
1
1
1
1
1
1
1
1
1
1
1
1
1
1
1
1
1
1
1
1
1
1
1
1
1
1
1
1
1
1
1
1
1
1
1
1
1
1
1
1
1
1
1
1
1
1
1
1
1
1
1
1
1
1
1
1
1
1
1
1
1
1
1
1
1
1
1
1
1
1
1
1
1
1
1
1
1
1
1
3.19719
9.62412
10.3483
10.3911
10.4501
10.4934
10.5248
10.5424
10.5496
10.5629
10.5931
10.6401
10.6922
10.7375
10.7686
10.786
10.7959
10.8076
10.8275
10.8574
10.8947
10.9328
10.9674
10.9966
11.0187
11.0334
11.0452
11.0656
11.1008
11.1436
11.1873
11.2218
11.2391
11.2412
11.2419
11.2534
11.2833
11.3228
11.3605
11.3862
11.398
11.4034
11.4131
11.4338
11.4639
11.4965
11.5255
11.5481
11.5639
11.5753
11.5847
11.5952
11.61
11.6312
11.6569
11.683
11.7054
11.7219
11.7341
11.7461
11.762
11.7815
11.7989
11.8081
11.8121
11.8198
11.835
11.8584
11.8843
11.9029
11.9083
11.9039
11.9009
11.9091
11.9306
11.9562
11.9732
11.9782
11.9778
11.9774
11.9808
11.9894
11.9971
11.9999
12.0021
12.009
12.0228
12.0395
12.0507
12.0517
12.0448
12.0343
12.0266
12.0253
1
1
1
1
1
1
1
1
1
1
1
1
1
1
1
1
1
1
1
1
1
1
1
1
1
1
1
1
1
1
1
1
1
1
1
1
1
1
1
1
1
1
1
1
1
1
1
1
1
1
1
1
1
1
1
1
1
1
1
1
1
1
1
1
1
1
1
1
1
1
1
1
1
1
1
1
1
1
1
1
1
1
1
1
1
1
1
1
1
1
1
1
1
1
1
1
1
1
3.11118
9.58223
10.3443
10.3799
10.4426
10.4942
10.5325
10.5516
10.554
10.5607
10.5876
10.6343
10.6879
10.7357
10.7694
10.7872
10.7945
10.8011
10.819
10.8514
10.8928
10.9344
10.9712
10.9996
11.0177
11.0272
11.0354
11.0568
11.0965
11.1437
11.1899
11.2239
11.2385
11.238
11.2375
11.2492
11.281
11.3218
11.3597
11.3843
11.3946
11.3994
11.41
11.4326
11.4642
11.4971
11.5249
11.5449
11.558
11.5676
11.5772
11.5906
11.6105
11.6363
11.6636
11.6875
11.7046
11.7153
11.7238
11.7362
11.7564
11.781
11.8003
11.8079
11.8095
11.8157
11.8311
11.8568
11.8847
11.9027
11.9058
11.8996
11.8959
11.905
11.9288
11.9559
11.9719
11.9748
11.9732
11.9729
11.9781
11.9892
11.9977
11.9992
11.9992
12.0043
12.0175
12.0353
12.0482
12.0498
12.0428
12.0317
12.0237
12.0225
1
1
1
1
1
1
1
1
1
1
1
1
1
1
1
1
1
1
1
1
1
1
1
1
1
1
1
1
1
1
1
1
1
1
1
1
1
1
1
1
1
1
1
1
1
1
1
1
1
1
1
1
1
1
1
1
1
1
1
1
1
1
1
1
1
1
1
1
1
1
1
1
1
1
1
1
1
1
1
1
1
1
1
1
1
1
1
1
1
1
1
1
1
1
1
1
1
1
3.00792
9.52495
10.3371
10.3736
10.4403
10.4982
10.5402
10.5575
10.5543
10.5558
10.5822
10.6298
10.6851
10.7348
10.7702
10.7876
10.7913
10.793
10.8119
10.8492
10.8948
10.939
10.9763
11.0018
11.0143
11.0186
11.0248
11.0482
11.0924
11.1435
11.191
11.2237
11.2359
11.2338
11.2335
11.2464
11.2797
11.3207
11.3576
11.3809
11.3906
11.396
11.4079
11.4316
11.4634
11.4955
11.5221
11.5404
11.5523
11.5612
11.5714
11.5873
11.6108
11.6396
11.668
11.6899
11.7028
11.709
11.7142
11.7264
11.75
11.779
11.8004
11.8071
11.8072
11.812
11.827
11.8538
11.8834
11.9013
11.9028
11.8956
11.8915
11.901
11.9256
11.9536
11.9695
11.9716
11.9692
11.9688
11.9748
11.9875
11.9969
11.9979
11.9968
12.0002
12.0121
12.0301
12.0441
12.0469
12.0406
12.0293
12.0206
12.0188
1
1
1
1
1
1
1
1
1
1
1
1
1
1
1
1
1
1
1
1
1
1
1
1
1
1
1
1
1
1
1
1
1
1
1
1
1
1
1
1
1
1
1
1
1
1
1
1
1
1
1
1
1
1
1
1
1
1
1
1
1
1
1
1
1
1
1
1
1
1
1
1
1
1
1
1
1
1
1
1
1
1
1
1
1
1
1
1
1
1
1
1
1
1
1
1
1
1
2.89144
9.45627
10.3363
10.3707
10.4363
10.4969
10.5411
10.558
10.5533
10.553
10.5797
10.6274
10.683
10.7332
10.7691
10.7854
10.7859
10.7852
10.8076
10.8499
10.8985
10.9443
10.9809
11.0023
11.0091
11.0091
11.0157
11.0424
11.0895
11.1424
11.1894
11.2201
11.2304
11.2282
11.2298
11.2453
11.2796
11.3197
11.3546
11.3764
11.386
11.3925
11.4056
11.4298
11.461
11.4921
11.5175
11.5356
11.5477
11.557
11.5678
11.585
11.6102
11.6404
11.6692
11.6897
11.6997
11.7035
11.707
11.7189
11.7438
11.7748
11.7977
11.8046
11.8045
11.8092
11.8242
11.8509
11.8802
11.8975
11.8982
11.891
11.8875
11.8974
11.9217
11.9494
11.9656
11.9681
11.9655
11.965
11.9716
11.9849
11.9946
11.9956
11.994
11.9964
12.007
12.0243
12.0389
12.043
12.0378
12.0268
12.0173
12.0145
1
1
1
1
1
1
1
1
1
1
1
1
1
1
1
1
1
1
1
1
1
1
1
1
1
1
1
1
1
1
1
1
1
1
1
1
1
1
1
1
1
1
1
1
1
1
1
1
1
1
1
1
1
1
1
1
1
1
1
1
1
1
1
1
1
1
1
1
1
1
1
1
1
1
1
1
1
1
1
1
1
1
1
1
1
1
1
1
1
1
1
1
1
1
1
1
1
1
2.75859
9.37165
10.3432
10.371
10.433
10.492
10.5367
10.5557
10.554
10.5552
10.5814
10.6268
10.6801
10.7291
10.7643
10.7805
10.7808
10.781
10.8066
10.8525
10.9019
10.9477
10.9823
11
11.0025
11.001
11.0114
11.0416
11.0888
11.1399
11.1842
11.2119
11.2214
11.221
11.2265
11.2457
11.2809
11.3192
11.3513
11.3713
11.3808
11.3884
11.4027
11.427
11.4573
11.4872
11.5122
11.5306
11.5437
11.554
11.5658
11.5833
11.6084
11.6383
11.6667
11.6862
11.6952
11.6988
11.7024
11.7146
11.7391
11.7689
11.7913
11.799
11.8005
11.8071
11.8233
11.8495
11.8761
11.891
11.8911
11.8852
11.8836
11.8944
11.9182
11.9444
11.9602
11.9635
11.9615
11.9617
11.9691
11.9822
11.9912
11.9921
11.9905
11.9925
12.002
12.0185
12.0331
12.0382
12.034
12.0234
12.0134
12.0098
1
1
1
1
1
1
1
1
1
1
1
1
1
1
1
1
1
1
1
1
1
1
1
1
1
1
1
1
1
1
1
1
1
1
1
1
1
1
1
1
1
1
1
1
1
1
1
1
1
1
1
1
1
1
1
1
1
1
1
1
1
1
1
1
1
1
1
1
1
1
1
1
1
1
1
1
1
1
1
1
1
1
1
1
1
1
1
1
1
1
1
1
1
1
1
1
1
1
2.61449
9.26639
10.354
10.3728
10.4302
10.4849
10.5279
10.55
10.5544
10.5601
10.5857
10.6275
10.6759
10.7217
10.7561
10.774
10.7774
10.7811
10.8094
10.8556
10.9029
10.9464
10.9782
10.9932
10.9946
10.9959
11.0125
11.0455
11.0905
11.1373
11.1764
11.2002
11.2095
11.2125
11.2235
11.2471
11.2829
11.3189
11.3475
11.3653
11.3745
11.383
11.3986
11.4235
11.4537
11.4829
11.5071
11.5254
11.5391
11.5507
11.5638
11.5821
11.6069
11.6352
11.6615
11.6796
11.689
11.694
11.6998
11.7133
11.7362
11.762
11.7811
11.7899
11.7951
11.8052
11.8242
11.8498
11.8722
11.8831
11.8822
11.8779
11.8793
11.8923
11.9158
11.9393
11.9533
11.957
11.9564
11.9583
11.9673
11.9797
11.9869
11.9869
11.9854
11.9876
11.9968
12.0129
12.0272
12.0325
12.0289
12.0189
12.0091
12.0052
1
1
1
1
1
1
1
1
1
1
1
1
1
1
1
1
1
1
1
1
1
1
1
1
1
1
1
1
1
1
1
1
1
1
1
1
1
1
1
1
1
1
1
1
1
1
1
1
1
1
1
1
1
1
1
1
1
1
1
1
1
1
1
1
1
1
1
1
1
1
1
1
1
1
1
1
1
1
1
1
1
1
1
1
1
1
1
1
1
1
1
1
1
1
1
1
1
1
2.46432
9.13421
10.3617
10.3761
10.4307
10.4776
10.517
10.5432
10.5552
10.5651
10.5895
10.6276
10.6709
10.7127
10.7459
10.7666
10.7752
10.7842
10.8146
10.8586
10.9016
10.9407
10.969
10.9828
10.9864
10.9938
11.0176
11.0528
11.0941
11.1344
11.1668
11.1864
11.1957
11.2031
11.2203
11.2485
11.2848
11.3184
11.3431
11.3581
11.3664
11.3758
11.3935
11.4207
11.4519
11.4805
11.5027
11.5192
11.5324
11.545
11.56
11.5804
11.6058
11.6325
11.6553
11.6709
11.6807
11.6883
11.698
11.714
11.7354
11.7559
11.7697
11.7779
11.7871
11.8027
11.8258
11.8509
11.8686
11.8744
11.8718
11.869
11.8738
11.8899
11.9132
11.9338
11.9452
11.9489
11.9503
11.9552
11.9663
11.9775
11.9819
11.9804
11.9786
11.9817
11.9915
12.0078
12.0216
12.0261
12.0225
12.0131
12.0043
12.0008
1
1
1
1
1
1
1
1
1
1
1
1
1
1
1
1
1
1
1
1
1
1
1
1
1
1
1
1
1
1
1
1
1
1
1
1
1
1
1
1
1
1
1
1
1
1
1
1
1
1
1
1
1
1
1
1
1
1
1
1
1
1
1
1
1
1
1
1
1
1
1
1
1
1
1
1
1
1
1
1
1
1
1
1
1
1
1
1
1
1
1
1
1
1
1
1
1
1
2.30703
8.98401
10.3622
10.3798
10.4346
10.4736
10.5085
10.536
10.5539
10.5675
10.5913
10.6266
10.6657
10.7038
10.7358
10.7589
10.7734
10.7882
10.8199
10.8612
10.8995
10.9323
10.9559
10.9699
10.9778
10.9928
11.0241
11.061
11.0983
11.1317
11.1569
11.172
11.1814
11.1931
11.2167
11.2493
11.2859
11.317
11.3375
11.3492
11.3561
11.3667
11.3883
11.4196
11.4528
11.4805
11.4995
11.5125
11.5234
11.5359
11.5536
11.578
11.6058
11.631
11.6493
11.6609
11.67
11.6804
11.6952
11.7152
11.7354
11.7503
11.7583
11.7646
11.7769
11.7987
11.8266
11.8515
11.8648
11.8659
11.8614
11.8596
11.8675
11.8867
11.9098
11.9278
11.9368
11.9401
11.9436
11.9521
11.9652
11.9749
11.9763
11.9727
11.9704
11.9747
11.986
12.0032
12.0163
12.0191
12.0148
12.0062
11.9991
11.9968
1
1
1
1
1
1
1
1
1
1
1
1
1
1
1
1
1
1
1
1
1
1
1
1
1
1
1
1
1
1
1
1
1
1
1
1
1
1
1
1
1
1
1
1
1
1
1
1
1
1
1
1
1
1
1
1
1
1
1
1
1
1
1
1
1
1
1
1
1
1
1
1
1
1
1
1
1
1
1
1
1
1
1
1
1
1
1
1
1
1
1
1
1
1
1
1
1
1
2.13908
8.81866
10.3558
10.3831
10.4361
10.4716
10.5035
10.5297
10.5501
10.5665
10.5907
10.6242
10.6611
10.6966
10.7274
10.752
10.7711
10.7905
10.823
10.8622
10.8965
10.9235
10.9426
10.9562
10.9685
10.9918
11.0295
11.0678
11.1017
11.1289
11.1475
11.1585
11.1678
11.1833
11.2123
11.2487
11.2858
11.3145
11.3308
11.339
11.3446
11.357
11.3839
11.4204
11.456
11.4823
11.4968
11.5046
11.5117
11.5234
11.5449
11.5752
11.6062
11.63
11.6434
11.6505
11.6583
11.6712
11.6916
11.7155
11.7351
11.7449
11.7476
11.752
11.7663
11.7934
11.8255
11.8502
11.8604
11.8578
11.8516
11.8502
11.8601
11.8813
11.9045
11.9209
11.9284
11.9315
11.9367
11.9486
11.9632
11.9713
11.9704
11.9647
11.9618
11.9672
11.9804
11.9986
12.0107
12.0114
12.0059
11.9981
11.9931
11.9925
1
1
1
1
1
1
1
1
1
1
1
1
1
1
1
1
1
1
1
1
1
1
1
1
1
1
1
1
1
1
1
1
1
1
1
1
1
1
1
1
1
1
1
1
1
1
1
1
1
1
1
1
1
1
1
1
1
1
1
1
1
1
1
1
1
1
1
1
1
1
1
1
1
1
1
1
1
1
1
1
1
1
1
1
1
1
1
1
1
1
1
1
1
1
1
1
1
1
1.96972
8.63027
10.3572
10.389
10.4347
10.4671
10.4968
10.5215
10.5439
10.5639
10.5893
10.6223
10.6583
10.6923
10.7218
10.7463
10.7679
10.7904
10.8234
10.8612
10.8928
10.916
10.9318
10.945
10.9607
10.9902
11.0318
11.0711
11.1031
11.1255
11.1389
11.1465
11.1556
11.1742
11.2072
11.2467
11.2843
11.3109
11.3232
11.3282
11.3328
11.3479
11.3807
11.4222
11.4598
11.484
11.4928
11.4949
11.4986
11.5101
11.5363
11.5724
11.6061
11.6279
11.6363
11.6397
11.6466
11.6619
11.687
11.7141
11.7327
11.7386
11.7378
11.7411
11.7567
11.7872
11.8219
11.8466
11.8548
11.8503
11.8432
11.8417
11.8523
11.8742
11.8974
11.9132
11.9205
11.9238
11.9303
11.9447
11.9596
11.966
11.9632
11.956
11.9529
11.9594
11.9744
11.9933
12.0042
12.0028
11.996
11.989
11.9866
11.9877
1
1
1
1
1
1
1
1
1
1
1
1
1
1
1
1
1
1
1
1
1
1
1
1
1
1
1
1
1
1
1
1
1
1
1
1
1
1
1
1
1
1
1
1
1
1
1
1
1
1
1
1
1
1
1
1
1
1
1
1
1
1
1
1
1
1
1
1
1
1
1
1
1
1
1
1
1
1
1
1
1
1
1
1
1
1
1
1
1
1
1
1
1
1
1
1
1
1
1.8077
8.41255
10.3611
10.3932
10.4315
10.461
10.4887
10.513
10.5367
10.5599
10.5869
10.62
10.6559
10.6889
10.717
10.7408
10.7636
10.788
10.8211
10.8575
10.8877
10.9092
10.9234
10.9367
10.9549
10.987
11.0302
11.0701
11.1011
11.1206
11.1305
11.136
11.1449
11.1658
11.2013
11.2428
11.2808
11.3058
11.315
11.3178
11.3223
11.3411
11.3791
11.4241
11.4616
11.4821
11.4854
11.4836
11.4853
11.4984
11.5301
11.57
11.6038
11.6222
11.6265
11.6284
11.636
11.6544
11.6828
11.7111
11.7277
11.7301
11.728
11.7318
11.7493
11.7817
11.8169
11.8403
11.8469
11.8418
11.8352
11.8341
11.8446
11.8659
11.8888
11.9048
11.9127
11.9169
11.9247
11.9399
11.954
11.9587
11.9548
11.947
11.9444
11.9518
11.9682
11.9871
11.9966
11.9934
11.9859
11.9798
11.9796
11.9822
1
1
1
1
1
1
1
1
1
1
1
1
1
1
1
1
1
1
1
1
1
1
1
1
1
1
1
1
1
1
1
1
1
1
1
1
1
1
1
1
1
1
1
1
1
1
1
1
1
1
1
1
1
1
1
1
1
1
1
1
1
1
1
1
1
1
1
1
1
1
1
1
1
1
1
1
1
1
1
1
1
1
1
1
1
1
1
1
1
1
1
1
1
1
1
1
1
1
1.65483
8.16388
10.3623
10.3931
10.4259
10.4541
10.4809
10.5054
10.5298
10.5553
10.5835
10.617
10.6527
10.685
10.7123
10.7358
10.7592
10.7848
10.8163
10.8503
10.8792
10.9006
10.9161
10.9314
10.9517
10.9832
11.0245
11.0633
11.0938
11.1126
11.1216
11.1265
11.1354
11.1579
11.1945
11.237
11.2748
11.2983
11.3058
11.308
11.3138
11.3376
11.3796
11.4248
11.459
11.474
11.4731
11.4696
11.4725
11.4914
11.5281
11.5685
11.5987
11.6115
11.613
11.6157
11.6265
11.6502
11.6808
11.7069
11.7194
11.7184
11.7161
11.7222
11.7436
11.7779
11.8118
11.8322
11.8368
11.832
11.8267
11.827
11.8377
11.8579
11.8795
11.8954
11.9042
11.9099
11.9189
11.9335
11.9458
11.9492
11.9449
11.9378
11.9364
11.9448
11.9619
11.9798
11.9878
11.9835
11.9756
11.9705
11.9721
11.9756
1
1
1
1
1
1
1
1
1
1
1
1
1
1
1
1
1
1
1
1
1
1
1
1
1
1
1
1
1
1
1
1
1
1
1
1
1
1
1
1
1
1
1
1
1
1
1
1
1
1
1
1
1
1
1
1
1
1
1
1
1
1
1
1
1
1
1
1
1
1
1
1
1
1
1
1
1
1
1
1
1
1
1
1
1
1
1
1
1
1
1
1
1
1
1
1
1
1
1.50802
7.88591
10.3653
10.3939
10.4218
10.4502
10.4767
10.5014
10.5255
10.5514
10.5801
10.6133
10.6484
10.6803
10.7079
10.7323
10.7566
10.7828
10.812
10.8425
10.8695
10.8913
10.9091
10.9272
10.9498
10.9806
11.019
11.0557
11.0849
11.1036
11.113
11.1183
11.1277
11.1518
11.1888
11.231
11.2675
11.2892
11.2957
11.2989
11.3086
11.3384
11.3825
11.4249
11.4524
11.4593
11.4553
11.4528
11.4615
11.4904
11.5317
11.569
11.5911
11.5958
11.5951
11.6003
11.6183
11.6499
11.6823
11.7026
11.7071
11.7031
11.7015
11.7119
11.7395
11.7764
11.8075
11.8228
11.824
11.8196
11.8163
11.8191
11.8315
11.8507
11.8704
11.8852
11.8947
11.9021
11.9123
11.9259
11.936
11.9382
11.9341
11.9287
11.9291
11.9383
11.9552
11.9715
11.9777
11.9727
11.9649
11.961
11.9638
11.9677
1
1
1
1
1
1
1
1
1
1
1
1
1
1
1
1
1
1
1
1
1
1
1
1
1
1
1
1
1
1
1
1
1
1
1
1
1
1
1
1
1
1
1
1
1
1
1
1
1
1
1
1
1
1
1
1
1
1
1
1
1
1
1
1
1
1
1
1
1
1
1
1
1
1
1
1
1
1
1
1
1
1
1
1
1
1
1
1
1
1
1
1
1
1
1
1
1
1
1.36208
7.57259
10.3722
10.3909
10.4159
10.4454
10.4729
10.4988
10.523
10.5485
10.5769
10.6087
10.6426
10.6748
10.7036
10.7297
10.7548
10.7806
10.8066
10.8331
10.8587
10.8814
10.902
10.9232
10.9477
10.9772
11.0123
11.0467
11.0749
11.094
11.1046
11.1109
11.1218
11.1479
11.1847
11.225
11.2585
11.2776
11.2839
11.2896
11.3059
11.3422
11.3867
11.4231
11.4415
11.4398
11.4329
11.4343
11.4533
11.4937
11.5384
11.5695
11.5807
11.5772
11.574
11.5833
11.612
11.6523
11.6851
11.6984
11.6933
11.685
11.6843
11.7011
11.737
11.7764
11.8035
11.8124
11.8094
11.8048
11.8041
11.8109
11.8264
11.8451
11.862
11.8746
11.8839
11.8928
11.9043
11.917
11.9251
11.9262
11.9225
11.9192
11.9217
11.9318
11.948
11.9623
11.9666
11.9612
11.954
11.9512
11.9549
11.9588
1
1
1
1
1
1
1
1
1
1
1
1
1
1
1
1
1
1
1
1
1
1
1
1
1
1
1
1
1
1
1
1
1
1
1
1
1
1
1
1
1
1
1
1
1
1
1
1
1
1
1
1
1
1
1
1
1
1
1
1
1
1
1
1
1
1
1
1
1
1
1
1
1
1
1
1
1
1
1
1
1
1
1
1
1
1
1
1
1
1
1
1
1
1
1
1
1
1
1.2182
7.23862
10.3765
10.3845
10.4081
10.4392
10.4682
10.4957
10.521
10.5463
10.5734
10.603
10.6351
10.6677
10.6982
10.7262
10.7521
10.7773
10.8008
10.8242
10.8487
10.8722
10.8945
10.9177
10.9434
10.9719
11.0047
11.0377
11.0652
11.0843
11.0961
11.1042
11.1179
11.1462
11.1825
11.2197
11.2487
11.264
11.2702
11.2802
11.305
11.3467
11.3897
11.4188
11.4266
11.4188
11.4101
11.4168
11.4487
11.4989
11.5438
11.5681
11.5674
11.5572
11.5523
11.5675
11.6082
11.6558
11.6863
11.6908
11.6781
11.6649
11.6659
11.6911
11.7352
11.7767
11.7985
11.8003
11.7934
11.788
11.7903
11.8028
11.8223
11.8404
11.8536
11.863
11.8713
11.8814
11.8947
11.9073
11.9138
11.9138
11.9106
11.9092
11.9138
11.9249
11.9401
11.9523
11.9548
11.9491
11.9427
11.941
11.9453
11.9489
1
1
1
1
1
1
1
1
1
1
1
1
1
1
1
1
1
1
1
1
1
1
1
1
1
1
1
1
1
1
1
1
1
1
1
1
1
1
1
1
1
1
1
1
1
1
1
1
1
1
1
1
1
1
1
1
1
1
1
1
1
1
1
1
1
1
1
1
1
1
1
1
1
1
1
1
1
1
1
1
1
1
1
1
1
1
1
1
1
1
1
1
1
1
1
1
1
1
1.07607
6.9075
10.3639
10.3754
10.3947
10.4257
10.4571
10.4889
10.5182
10.5458
10.5727
10.6
10.6296
10.6614
10.6926
10.7215
10.7475
10.7719
10.7941
10.8162
10.8404
10.8641
10.8868
10.9105
10.9367
10.965
10.9969
11.0292
11.0559
11.0747
11.0875
11.0981
11.1156
11.1463
11.1814
11.2144
11.238
11.2493
11.2562
11.2718
11.3046
11.3488
11.3883
11.4105
11.4095
11.3979
11.3903
11.4049
11.4478
11.5024
11.544
11.5605
11.5516
11.5365
11.5329
11.5571
11.607
11.6567
11.6834
11.6802
11.6615
11.6452
11.6496
11.6833
11.7334
11.7744
11.791
11.7865
11.7762
11.7704
11.7765
11.7958
11.8189
11.8353
11.8441
11.8501
11.857
11.8683
11.8841
11.8973
11.9026
11.9013
11.8984
11.8987
11.9049
11.917
11.9315
11.9416
11.9424
11.9364
11.9309
11.9301
11.9349
11.938
1
1
1
1
1
1
1
1
1
1
1
1
1
1
1
1
1
1
1
1
1
1
1
1
1
1
1
1
1
1
1
1
1
1
1
1
1
1
1
1
1
1
1
1
1
1
1
1
1
1
1
1
1
1
1
1
1
1
1
1
1
1
1
1
1
1
1
1
1
1
1
1
1
1
1
1
1
1
1
1
1
1
1
1
1
1
1
1
1
1
1
1
1
1
1
1
1
1
1.00299
6.52041
10.3148
10.3606
10.3831
10.415
10.4474
10.481
10.5126
10.542
10.5697
10.5965
10.6242
10.6539
10.6835
10.7114
10.7376
10.7626
10.7863
10.8092
10.8334
10.8569
10.8791
10.9025
10.929
10.958
10.9898
11.021
11.0463
11.0644
11.0786
11.0928
11.1147
11.1468
11.1795
11.2074
11.2255
11.234
11.2435
11.2654
11.3028
11.3461
11.38
11.3959
11.3908
11.3792
11.3784
11.4019
11.4494
11.501
11.5358
11.5445
11.5323
11.5169
11.5203
11.5539
11.6068
11.6527
11.6734
11.6651
11.6438
11.6281
11.638
11.6783
11.7302
11.7677
11.779
11.7706
11.7583
11.7536
11.7649
11.7905
11.8152
11.8281
11.8326
11.8359
11.8416
11.8542
11.8728
11.887
11.8912
11.8888
11.8858
11.8873
11.8949
11.9082
11.9219
11.93
11.9294
11.9234
11.9187
11.9187
11.9237
11.926
1
1
1
1
1
1
1
1
1
1
1
1
1
1
1
1
1
1
1
1
1
1
1
1
1
1
1
1
1
1
1
1
1
1
1
1
1
1
1
1
1
1
1
1
1
1
1
1
1
1
1
1
1
1
1
1
1
1
1
1
1
1
1
1
1
1
1
1
1
1
1
1
1
1
1
1
1
1
1
1
1
1
1
1
1
1
1
1
1
1
1
1
1
1
1
1
1
1
1.00002
6.05365
10.2622
10.3411
10.3661
10.3992
10.4346
10.4714
10.5062
10.5385
10.5679
10.5955
10.6221
10.6487
10.6752
10.7009
10.7264
10.7524
10.7785
10.8039
10.828
10.8489
10.8691
10.8928
10.9213
10.9525
10.9843
11.0132
11.0356
11.0526
11.0691
11.0884
11.1147
11.1465
11.175
11.1968
11.2103
11.219
11.2341
11.2624
11.3008
11.3389
11.365
11.3752
11.3703
11.3645
11.3751
11.4075
11.4527
11.4946
11.5191
11.5205
11.5092
11.5007
11.5153
11.5561
11.6065
11.644
11.6564
11.6449
11.625
11.6148
11.6323
11.6761
11.725
11.7561
11.762
11.752
11.7404
11.7393
11.757
11.7863
11.8094
11.8179
11.8188
11.8201
11.8257
11.8405
11.8615
11.8762
11.8792
11.876
11.8729
11.8753
11.8842
11.8983
11.9111
11.9174
11.9159
11.9103
11.9064
11.9068
11.9116
11.9128
1
1
1
1
1
1
1
1
1
1
1
1
1
1
1
1
1
1
1
1
1
1
1
1
1
1
1
1
1
1
1
1
1
1
1
1
1
1
1
1
1
1
1
1
1
1
1
1
1
1
1
1
1
1
1
1
1
1
1
1
1
1
1
1
1
1
1
1
1
1
1
1
1
1
1
1
1
1
1
1
1
1
1
1
1
1
1
1
1
1
1
1
1
1
1
1
1
1
1
5.56753
10.2159
10.3215
10.3484
10.3803
10.4181
10.4579
10.4957
10.5305
10.5618
10.5908
10.6171
10.6414
10.6654
10.6908
10.7177
10.7456
10.7735
10.7995
10.8194
10.8358
10.8567
10.8842
10.9169
10.9503
10.9814
11.0064
11.0239
11.0394
11.0596
11.0853
11.1155
11.1452
11.1672
11.1818
11.1918
11.2039
11.2275
11.2618
11.2987
11.3285
11.3448
11.3492
11.3472
11.3532
11.378
11.4174
11.4564
11.4846
11.4961
11.4915
11.4836
11.4885
11.517
11.5616
11.6045
11.6301
11.6334
11.621
11.6062
11.6063
11.6319
11.6753
11.7165
11.7391
11.7405
11.7314
11.7231
11.7288
11.753
11.7819
11.8
11.8039
11.8023
11.8029
11.8101
11.828
11.8505
11.8646
11.866
11.8623
11.8596
11.8628
11.8729
11.8873
11.8988
11.9034
11.9016
11.897
11.8944
11.8948
11.8987
11.898
1
1
1
1
1
1
1
1
1
1
1
1
1
1
1
1
1
1
1
1
1
1
1
1
1
1
1
1
1
1
1
1
1
1
1
1
1
1
1
1
1
1
1
1
1
1
1
1
1
1
1
1
1
1
1
1
1
1
1
1
1
1
1
1
1
1
1
1
1
1
1
1
1
1
1
1
1
1
1
1
1
1
1
1
1
1
1
1
1
1
1
1
1
1
1
1
1
1
1
5.06726
10.1542
10.3079
10.3312
10.3663
10.4036
10.4436
10.4832
10.52
10.5532
10.5831
10.6096
10.6326
10.6564
10.6836
10.7127
10.7417
10.7687
10.7915
10.8061
10.8209
10.8475
10.8813
10.9173
10.9512
10.9789
10.996
11.007
11.0237
11.0509
11.0839
11.1168
11.143
11.1574
11.1641
11.1713
11.1889
11.2219
11.261
11.2952
11.3165
11.3232
11.3226
11.325
11.3451
11.3833
11.4247
11.4567
11.4715
11.4698
11.4616
11.459
11.4795
11.5212
11.5656
11.5984
11.6117
11.6072
11.5957
11.5887
11.6009
11.6341
11.674
11.7045
11.7177
11.716
11.7093
11.7078
11.723
11.7515
11.776
11.7869
11.7863
11.7831
11.7848
11.7956
11.8173
11.8398
11.8516
11.8511
11.8472
11.846
11.8505
11.8617
11.8752
11.8845
11.8876
11.8863
11.8837
11.8828
11.8826
11.8848
11.8815
1
1
1
1
1
1
1
1
1
1
1
1
1
1
1
1
1
1
1
1
1
1
1
1
1
1
1
1
1
1
1
1
1
1
1
1
1
1
1
1
1
1
1
1
1
1
1
1
1
1
1
1
1
1
1
1
1
1
1
1
1
1
1
1
1
1
1
1
1
1
1
1
1
1
1
1
1
1
1
1
1
1
1
1
1
1
1
1
1
1
1
1
1
1
1
1
1
1
1
4.55844
10.0578
10.3026
10.3226
10.357
10.3921
10.4309
10.4709
10.5087
10.5428
10.5734
10.6015
10.6259
10.6509
10.6795
10.7095
10.7374
10.7614
10.7809
10.7934
10.8114
10.8436
10.8814
10.9182
10.9497
10.9709
10.9791
10.9877
11.0111
11.0461
11.0848
11.1188
11.1395
11.1449
11.1443
11.1508
11.1755
11.2155
11.2569
11.2884
11.303
11.303
11.3
11.3078
11.3399
11.3854
11.4263
11.4503
11.4545
11.4454
11.4347
11.44
11.4749
11.5233
11.565
11.5873
11.5897
11.5809
11.5713
11.5738
11.5982
11.6357
11.6696
11.6886
11.6932
11.6903
11.687
11.6957
11.7213
11.7502
11.7671
11.7697
11.7654
11.762
11.7666
11.7827
11.8081
11.8288
11.8367
11.8342
11.8306
11.8318
11.8386
11.8507
11.8619
11.8679
11.87
11.8697
11.8704
11.8716
11.8703
11.8699
11.8634
1
1
1
1
1
1
1
1
1
1
1
1
1
1
1
1
1
1
1
1
1
1
1
1
1
1
1
1
1
1
1
1
1
1
1
1
1
1
1
1
1
1
1
1
1
1
1
1
1
1
1
1
1
1
1
1
1
1
1
1
1
1
1
1
1
1
1
1
1
1
1
1
1
1
1
1
1
1
1
1
1
1
1
1
1
1
1
1
1
1
1
1
1
1
1
1
1
1
1
4.045
9.9074
10.3006
10.3203
10.3556
10.3872
10.4229
10.4608
10.4977
10.532
10.5636
10.5931
10.6196
10.6462
10.6749
10.7038
10.73
10.7523
10.7713
10.7868
10.8088
10.8424
10.88
10.9141
10.9406
10.9557
10.9604
10.9739
11.0049
11.0438
11.0835
11.114
11.1273
11.1261
11.1248
11.1369
11.1678
11.2088
11.2481
11.2753
11.2851
11.2831
11.2835
11.2993
11.3356
11.3794
11.4166
11.4352
11.4339
11.4228
11.4141
11.4297
11.472
11.5196
11.5555
11.5702
11.5665
11.5564
11.5502
11.5622
11.5959
11.6337
11.6598
11.6689
11.6676
11.6644
11.667
11.688
11.7207
11.746
11.7544
11.7496
11.7418
11.7401
11.7495
11.7719
11.7995
11.8167
11.8194
11.8153
11.8128
11.8171
11.8274
11.8397
11.8473
11.8495
11.8504
11.8521
11.8565
11.8601
11.8579
11.854
11.8439
1
1
1
1
1
1
1
1
1
1
1
1
1
1
1
1
1
1
1
1
1
1
1
1
1
1
1
1
1
1
1
1
1
1
1
1
1
1
1
1
1
1
1
1
1
1
1
1
1
1
1
1
1
1
1
1
1
1
1
1
1
1
1
1
1
1
1
1
1
1
1
1
1
1
1
1
1
1
1
1
1
1
1
1
1
1
1
1
1
1
1
1
1
1
1
1
1
1
1
3.53903
9.70018
10.2979
10.3209
10.3581
10.3859
10.4177
10.4519
10.488
10.523
10.5561
10.5866
10.6142
10.6402
10.6673
10.6944
10.7197
10.7424
10.7634
10.7831
10.8082
10.8406
10.8741
10.9029
10.925
10.9393
10.9486
10.9693
11.0028
11.0393
11.0739
11.0982
11.1066
11.1065
11.1133
11.1334
11.1649
11.2005
11.2322
11.2533
11.2622
11.2666
11.277
11.2999
11.3339
11.37
11.3983
11.4116
11.4102
11.4024
11.403
11.4277
11.4694
11.5102
11.5377
11.547
11.5424
11.5344
11.534
11.5547
11.592
11.626
11.6436
11.6456
11.642
11.6403
11.6514
11.6836
11.7186
11.7377
11.7379
11.7269
11.7168
11.7183
11.7343
11.7627
11.7901
11.8026
11.7997
11.7944
11.7942
11.8023
11.8167
11.8281
11.8313
11.8295
11.8292
11.8335
11.8418
11.8479
11.8448
11.8372
11.8239
1
1
1
1
1
1
1
1
1
1
1
1
1
1
1
1
1
1
1
1
1
1
1
1
1
1
1
1
1
1
1
1
1
1
1
1
1
1
1
1
1
1
1
1
1
1
1
1
1
1
1
1
1
1
1
1
1
1
1
1
1
1
1
1
1
1
1
1
1
1
1
1
1
1
1
1
1
1
1
1
1
1
1
1
1
1
1
1
1
1
1
1
1
1
1
1
1
1
1
3.05112
9.43925
10.2964
10.3241
10.3626
10.3871
10.4156
10.4464
10.4807
10.5147
10.5483
10.5794
10.6081
10.6335
10.6573
10.682
10.7074
10.7328
10.7579
10.7822
10.8083
10.8359
10.8622
10.8861
10.9075
10.926
10.9436
10.9695
11.0008
11.0301
11.0558
11.0746
11.0842
11.0938
11.1114
11.1351
11.1616
11.187
11.2088
11.2259
11.2398
11.2573
11.2797
11.3051
11.3318
11.3553
11.372
11.3808
11.3829
11.3853
11.4006
11.4305
11.4652
11.4951
11.5137
11.5195
11.5179
11.5151
11.5229
11.5505
11.5861
11.6124
11.6219
11.62
11.6164
11.6194
11.6414
11.6806
11.7129
11.7243
11.7176
11.702
11.6922
11.6979
11.7212
11.7544
11.7787
11.7851
11.7784
11.7721
11.775
11.7879
11.8055
11.8157
11.8142
11.8083
11.8069
11.8138
11.8259
11.8341
11.8303
11.8195
11.8038
1
1
1
1
1
1
1
1
1
1
1
1
1
1
1
1
1
1
1
1
1
1
1
1
1
1
1
1
1
1
1
1
1
1
1
1
1
1
1
1
1
1
1
1
1
1
1
1
1
1
1
1
1
1
1
1
1
1
1
1
1
1
1
1
1
1
1
1
1
1
1
1
1
1
1
1
1
1
1
1
1
1
1
1
1
1
1
1
1
1
1
1
1
1
1
1
1
1
1
2.58275
9.11734
10.3018
10.3342
10.3665
10.3885
10.4146
10.4429
10.4763
10.5087
10.5408
10.5723
10.602
10.6268
10.6485
10.6712
10.6972
10.7248
10.7525
10.7791
10.8037
10.8259
10.8465
10.8677
10.891
10.9159
10.9418
10.9705
10.997
11.0178
11.035
11.0511
11.0656
11.0857
11.1108
11.1345
11.154
11.1695
11.1839
11.2005
11.2233
11.2535
11.2836
11.3084
11.3251
11.3347
11.3414
11.3476
11.3565
11.3753
11.4032
11.433
11.4581
11.4757
11.485
11.4893
11.4924
11.498
11.5164
11.547
11.5764
11.5934
11.5958
11.5925
11.592
11.6032
11.6358
11.6766
11.7027
11.7058
11.6935
11.676
11.6692
11.6802
11.71
11.7448
11.7645
11.7644
11.7552
11.7493
11.7559
11.7737
11.7933
11.8012
11.7956
11.7865
11.7842
11.7933
11.8083
11.818
11.8141
11.8011
11.7847
1
1
1
1
1
1
1
1
1
1
1
1
1
1
1
1
1
1
1
1
1
1
1
1
1
1
1
1
1
1
1
1
1
1
1
1
1
1
1
1
1
1
1
1
1
1
1
1
1
1
1
1
1
1
1
1
1
1
1
1
1
1
1
1
1
1
1
1
1
1
1
1
1
1
1
1
1
1
1
1
1
1
1
1
1
1
1
1
1
1
1
1
1
1
1
1
1
1
1
2.13037
8.7252
10.3229
10.3393
10.3679
10.3881
10.4115
10.4382
10.4699
10.5016
10.5332
10.5642
10.5938
10.6192
10.6416
10.6644
10.6905
10.7177
10.7453
10.7724
10.7951
10.8135
10.8315
10.8526
10.8781
10.908
10.9389
10.9677
10.9894
11.0046
11.0176
11.0327
11.051
11.077
11.1051
11.1271
11.1417
11.1522
11.1644
11.1835
11.2131
11.2495
11.2821
11.3028
11.3095
11.3101
11.3119
11.3187
11.3374
11.37
11.4047
11.4319
11.4471
11.453
11.4552
11.459
11.4668
11.4838
11.5121
11.5424
11.5631
11.57
11.5677
11.5643
11.5697
11.5921
11.632
11.6693
11.6873
11.6832
11.6663
11.6499
11.6483
11.6657
11.6999
11.7322
11.7461
11.741
11.7308
11.7268
11.7374
11.7596
11.7792
11.7841
11.7758
11.7643
11.7617
11.7722
11.7887
11.7992
11.7956
11.7817
11.7668
1
1
1
1
1
1
1
1
1
1
1
1
1
1
1
1
1
1
1
1
1
1
1
1
1
1
1
1
1
1
1
1
1
1
1
1
1
1
1
1
1
1
1
1
1
1
1
1
1
1
1
1
1
1
1
1
1
1
1
1
1
1
1
1
1
1
1
1
1
1
1
1
1
1
1
1
1
1
1
1
1
1
1
1
1
1
1
1
1
1
1
1
1
1
1
1
1
1
1
1.72177
8.27821
10.3692
10.3487
10.369
10.3867
10.4096
10.4368
10.4676
10.4947
10.5232
10.553
10.5829
10.6096
10.6341
10.6588
10.6853
10.7103
10.7354
10.7618
10.7839
10.802
10.8205
10.8424
10.8682
10.8987
10.9311
10.9587
10.9783
10.9928
11.0062
11.0219
11.0414
11.0668
11.0919
11.1114
11.1258
11.1377
11.153
11.1756
11.2067
11.2415
11.2706
11.2862
11.2882
11.2867
11.2885
11.2992
11.3264
11.3652
11.4017
11.4244
11.4315
11.4291
11.4252
11.4283
11.4428
11.4725
11.5073
11.5341
11.5458
11.5437
11.5381
11.5374
11.5507
11.5843
11.6272
11.6578
11.6663
11.6567
11.6377
11.6248
11.6297
11.6539
11.6894
11.716
11.7232
11.7154
11.7057
11.7051
11.7199
11.7447
11.7624
11.7644
11.7544
11.7421
11.7397
11.7505
11.767
11.7774
11.7746
11.7615
11.7504
1
1
1
1
1
1
1
1
1
1
1
1
1
1
1
1
1
1
1
1
1
1
1
1
1
1
1
1
1
1
1
1
1
1
1
1
1
1
1
1
1
1
1
1
1
1
1
1
1
1
1
1
1
1
1
1
1
1
1
1
1
1
1
1
1
1
1
1
1
1
1
1
1
1
1
1
1
1
1
1
1
1
1
1
1
1
1
1
1
1
1
1
1
1
1
1
1
1
1
1.38973
7.72773
10.3743
10.3553
10.3672
10.383
10.4051
10.4317
10.4597
10.4852
10.5103
10.5379
10.5679
10.5978
10.6263
10.6532