/*--------------------------------*- C++ -*----------------------------------*\
  =========                 |
  \\      /  F ield         | OpenFOAM: The Open Source CFD Toolbox
   \\    /   O peration     | Website:  https://openfoam.org
    \\  /    A nd           | Version:  7
     \\/     M anipulation  |
\*---------------------------------------------------------------------------*/
FoamFile
{
    version     2.0;
    format      ascii;
    class       volScalarField;
    location    "3.4";
    object      rho;
}
// * * * * * * * * * * * * * * * * * * * * * * * * * * * * * * * * * * * * * //

dimensions      [1 -3 0 0 0 0 0];

internalField   nonuniform List<scalar> 
258048
(
1.40001
1.40001
1.40001
1.40001
1.40001
1.40001
1.40001
1.40001
1.40001
1.40001
1.40001
1.40001
1.40001
1.40001
1.40001
1.40001
1.40001
1.40001
1.40001
1.40001
1.40001
1.40001
1.40001
1.40001
1.40001
1.40001
1.40001
1.40001
1.40001
1.40001
1.40001
1.40001
1.40001
1.40001
1.40001
1.40001
1.40001
1.40001
1.40001
1.40001
1.40001
1.40001
1.40001
1.40001
1.40001
1.40001
1.40001
1.40001
1.40001
1.40001
1.40001
1.40001
1.40001
1.40001
1.40001
1.40001
1.40001
1.40001
1.40001
1.40001
1.40001
1.40001
1.40001
1.40001
1.40001
1.40001
1.40001
1.40001
1.40001
1.40001
1.40001
1.40001
1.40001
1.40001
1.40001
1.40001
1.40001
1.40001
1.40001
1.40001
1.40001
1.40001
1.40001
1.40001
1.40001
1.40001
1.40001
1.40001
1.40001
1.40001
1.40001
1.40001
1.40001
1.40001
1.40001
1.40001
1.40001
1.40001
2.63577
5.15847
5.40614
5.42823
5.44476
5.45401
5.45851
5.46052
5.46441
5.47348
5.48894
5.50859
5.52779
5.54159
5.54935
5.55422
5.56079
5.57132
5.58465
5.59782
5.60859
5.61688
5.62458
5.63352
5.64346
5.65243
5.65937
5.66576
5.67503
5.68786
5.70213
5.71509
5.72371
5.72755
5.72957
5.73369
5.74168
5.75272
5.76481
5.77552
5.78344
5.78904
5.7938
5.79891
5.80517
5.81307
5.823
5.83459
5.84605
5.85467
5.85882
5.85928
5.8587
5.86012
5.86645
5.87801
5.89183
5.90387
5.9115
5.9153
5.91808
5.92217
5.92776
5.93271
5.93534
5.93744
5.94115
5.94714
5.95609
5.9658
5.9718
5.97229
5.97022
5.96937
5.97308
5.98183
5.9917
5.99787
5.9992
5.99742
5.99442
5.99287
5.99517
5.99974
6.00365
6.0062
6.00762
6.00834
6.00859
6.00777
6.00477
5.99999
5.99503
5.99283
1.40001
1.40001
1.40001
1.40001
1.40001
1.40001
1.40001
1.40001
1.40001
1.40001
1.40001
1.40001
1.40001
1.40001
1.40001
1.40001
1.40001
1.40001
1.40001
1.40001
1.40001
1.40001
1.40001
1.40001
1.40001
1.40001
1.40001
1.40001
1.40001
1.40001
1.40001
1.40001
1.40001
1.40001
1.40001
1.40001
1.40001
1.40001
1.40001
1.40001
1.40001
1.40001
1.40001
1.40001
1.40001
1.40001
1.40001
1.40001
1.40001
1.40001
1.40001
1.40001
1.40001
1.40001
1.40001
1.40001
1.40001
1.40001
1.40001
1.40001
1.40001
1.40001
1.40001
1.40001
1.40001
1.40001
1.40001
1.40001
1.40001
1.40001
1.40001
1.40001
1.40001
1.40001
1.40001
1.40001
1.40001
1.40001
1.40001
1.40001
1.40001
1.40001
1.40001
1.40001
1.40001
1.40001
1.40001
1.40001
1.40001
1.40001
1.40001
1.40001
1.40001
1.40001
1.40001
1.40001
1.40001
1.40001
2.62861
5.16233
5.40212
5.42488
5.44275
5.45346
5.45915
5.46185
5.4659
5.4748
5.48986
5.50882
5.52751
5.54164
5.54998
5.55507
5.56123
5.57077
5.58302
5.59569
5.60691
5.61618
5.62472
5.63392
5.64361
5.65222
5.65908
5.66574
5.67537
5.68827
5.70259
5.71539
5.72372
5.72718
5.72903
5.73329
5.74178
5.75338
5.76564
5.77593
5.783
5.78785
5.79247
5.79818
5.80539
5.8141
5.82417
5.83508
5.84539
5.85318
5.85735
5.85852
5.85885
5.86119
5.86791
5.87907
5.89205
5.90328
5.91054
5.9144
5.91744
5.92171
5.92726
5.93215
5.935
5.9375
5.9416
5.9479
5.95658
5.96542
5.97071
5.97113
5.96958
5.96946
5.97365
5.98226
5.9914
5.99691
5.99824
5.99704
5.99478
5.99369
5.99556
5.99918
6.0025
6.00522
6.00721
6.00845
6.00887
6.00774
6.00436
5.99946
5.99476
5.99281
1.40001
1.40001
1.40001
1.40001
1.40001
1.40001
1.40001
1.40001
1.40001
1.40001
1.40001
1.40001
1.40001
1.40001
1.40001
1.40001
1.40001
1.40001
1.40001
1.40001
1.40001
1.40001
1.40001
1.40001
1.40001
1.40001
1.40001
1.40001
1.40001
1.40001
1.40001
1.40001
1.40001
1.40001
1.40001
1.40001
1.40001
1.40001
1.40001
1.40001
1.40001
1.40001
1.40001
1.40001
1.40001
1.40001
1.40001
1.40001
1.40001
1.40001
1.40001
1.40001
1.40001
1.40001
1.40001
1.40001
1.40001
1.40001
1.40001
1.40001
1.40001
1.40001
1.40001
1.40001
1.40001
1.40001
1.40001
1.40001
1.40001
1.40001
1.40001
1.40001
1.40001
1.40001
1.40001
1.40001
1.40001
1.40001
1.40001
1.40001
1.40001
1.40001
1.40001
1.40001
1.40001
1.40001
1.40001
1.40001
1.40001
1.40001
1.40001
1.40001
1.40001
1.40001
1.40001
1.40001
1.40001
1.40001
2.61225
5.16358
5.40004
5.42127
5.44044
5.45261
5.46003
5.46404
5.46835
5.47674
5.4908
5.50873
5.52675
5.5411
5.55031
5.55613
5.56205
5.57045
5.58127
5.59316
5.60483
5.61535
5.62498
5.63457
5.64391
5.65184
5.65826
5.66522
5.6756
5.689
5.70357
5.7162
5.72401
5.72675
5.72806
5.73223
5.74134
5.75381
5.76663
5.77672
5.78287
5.78654
5.79048
5.79651
5.80484
5.81483
5.82549
5.83583
5.84476
5.85123
5.85496
5.85673
5.85832
5.86214
5.86977
5.8807
5.89254
5.9025
5.90904
5.91295
5.91644
5.9212
5.92684
5.93141
5.93424
5.93715
5.94172
5.94868
5.95739
5.96535
5.96954
5.96945
5.96823
5.96913
5.97436
5.98306
5.99124
5.99557
5.99649
5.99589
5.99473
5.99481
5.99664
5.999
6.00112
6.00361
6.0062
6.00831
6.00919
6.00779
6.0039
5.99873
5.99435
5.99283
1.40001
1.40001
1.40001
1.40001
1.40001
1.40001
1.40001
1.40001
1.40001
1.40001
1.40001
1.40001
1.40001
1.40001
1.40001
1.40001
1.40001
1.40001
1.40001
1.40001
1.40001
1.40001
1.40001
1.40001
1.40001
1.40001
1.40001
1.40001
1.40001
1.40001
1.40001
1.40001
1.40001
1.40001
1.40001
1.40001
1.40001
1.40001
1.40001
1.40001
1.40001
1.40001
1.40001
1.40001
1.40001
1.40001
1.40001
1.40001
1.40001
1.40001
1.40001
1.40001
1.40001
1.40001
1.40001
1.40001
1.40001
1.40001
1.40001
1.40001
1.40001
1.40001
1.40001
1.40001
1.40001
1.40001
1.40001
1.40001
1.40001
1.40001
1.40001
1.40001
1.40001
1.40001
1.40001
1.40001
1.40001
1.40001
1.40001
1.40001
1.40001
1.40001
1.40001
1.40001
1.40001
1.40001
1.40001
1.40001
1.40001
1.40001
1.40001
1.40001
1.40001
1.40001
1.40001
1.40001
1.40001
1.40001
2.58632
5.1629
5.39953
5.41632
5.43664
5.45093
5.46108
5.46735
5.47197
5.47944
5.49183
5.50848
5.52581
5.54035
5.55042
5.55692
5.56234
5.56942
5.57891
5.59031
5.60273
5.61475
5.62559
5.63552
5.64419
5.65101
5.65662
5.66396
5.67546
5.68973
5.70477
5.71726
5.72432
5.72608
5.72684
5.73098
5.7409
5.75429
5.76754
5.7772
5.78233
5.78499
5.78857
5.79526
5.80493
5.81605
5.82681
5.83608
5.8434
5.84864
5.85218
5.85491
5.8583
5.86399
5.87249
5.88273
5.89278
5.9009
5.90653
5.91067
5.91513
5.92089
5.9268
5.93085
5.93324
5.93635
5.9415
5.94921
5.95816
5.96535
5.96834
5.96755
5.96649
5.9685
5.97496
5.98385
5.99095
5.99403
5.99451
5.99437
5.99449
5.99587
5.9977
5.99878
5.9996
6.00158
6.00474
6.00791
6.00933
6.00769
6.0033
5.99781
5.99367
5.99252
1.40001
1.40001
1.40001
1.40001
1.40001
1.40001
1.40001
1.40001
1.40001
1.40001
1.40001
1.40001
1.40001
1.40001
1.40001
1.40001
1.40001
1.40001
1.40001
1.40001
1.40001
1.40001
1.40001
1.40001
1.40001
1.40001
1.40001
1.40001
1.40001
1.40001
1.40001
1.40001
1.40001
1.40001
1.40001
1.40001
1.40001
1.40001
1.40001
1.40001
1.40001
1.40001
1.40001
1.40001
1.40001
1.40001
1.40001
1.40001
1.40001
1.40001
1.40001
1.40001
1.40001
1.40001
1.40001
1.40001
1.40001
1.40001
1.40001
1.40001
1.40001
1.40001
1.40001
1.40001
1.40001
1.40001
1.40001
1.40001
1.40001
1.40001
1.40001
1.40001
1.40001
1.40001
1.40001
1.40001
1.40001
1.40001
1.40001
1.40001
1.40001
1.40001
1.40001
1.40001
1.40001
1.40001
1.40001
1.40001
1.40001
1.40001
1.40001
1.40001
1.40001
1.40001
1.40001
1.40001
1.40001
1.40001
2.55334
5.1524
5.39919
5.41184
5.43292
5.44979
5.463
5.47119
5.47529
5.48132
5.49242
5.50806
5.52495
5.5399
5.55082
5.55777
5.56251
5.5681
5.57654
5.58795
5.60135
5.6146
5.62648
5.63654
5.64425
5.64958
5.65407
5.66177
5.67475
5.69033
5.70618
5.71864
5.72481
5.7255
5.72565
5.7297
5.74034
5.75447
5.768
5.77725
5.78154
5.78352
5.78703
5.79446
5.80525
5.81698
5.8275
5.83574
5.84161
5.84582
5.84927
5.85302
5.85836
5.866
5.87531
5.88476
5.89284
5.8988
5.90323
5.90763
5.9135
5.92074
5.92717
5.9306
5.93215
5.93505
5.94065
5.94921
5.95863
5.96538
5.96736
5.96573
5.96459
5.96739
5.97505
5.98433
5.9906
5.99257
5.99259
5.99269
5.9939
5.99645
5.99843
5.9986
5.99838
5.99965
6.00297
6.00702
6.00908
6.00741
6.00268
5.99689
5.99285
5.99195
1.40001
1.40001
1.40001
1.40001
1.40001
1.40001
1.40001
1.40001
1.40001
1.40001
1.40001
1.40001
1.40001
1.40001
1.40001
1.40001
1.40001
1.40001
1.40001
1.40001
1.40001
1.40001
1.40001
1.40001
1.40001
1.40001
1.40001
1.40001
1.40001
1.40001
1.40001
1.40001
1.40001
1.40001
1.40001
1.40001
1.40001
1.40001
1.40001
1.40001
1.40001
1.40001
1.40001
1.40001
1.40001
1.40001
1.40001
1.40001
1.40001
1.40001
1.40001
1.40001
1.40001
1.40001
1.40001
1.40001
1.40001
1.40001
1.40001
1.40001
1.40001
1.40001
1.40001
1.40001
1.40001
1.40001
1.40001
1.40001
1.40001
1.40001
1.40001
1.40001
1.40001
1.40001
1.40001
1.40001
1.40001
1.40001
1.40001
1.40001
1.40001
1.40001
1.40001
1.40001
1.40001
1.40001
1.40001
1.40001
1.40001
1.40001
1.40001
1.40001
1.40001
1.40001
1.40001
1.40001
1.40001
1.40001
2.51151
5.13754
5.39815
5.40799
5.43033
5.4503
5.46614
5.47484
5.47707
5.48081
5.4912
5.50682
5.52399
5.53946
5.55113
5.55814
5.56182
5.56564
5.57375
5.58642
5.60143
5.61586
5.62834
5.63792
5.64402
5.6474
5.65067
5.65893
5.67361
5.69074
5.70739
5.71955
5.72476
5.72453
5.72433
5.7285
5.73982
5.75435
5.7679
5.77674
5.78048
5.7823
5.78614
5.79424
5.80553
5.81733
5.82742
5.83475
5.83965
5.84321
5.84674
5.85155
5.85868
5.86793
5.87782
5.88646
5.89263
5.89653
5.89961
5.90414
5.91157
5.92061
5.92769
5.93056
5.93123
5.93358
5.93926
5.94864
5.95878
5.96532
5.96647
5.96421
5.96279
5.96595
5.97443
5.98422
5.99011
5.99133
5.99096
5.99108
5.99292
5.99633
5.99864
5.99838
5.99744
5.998
6.00108
6.00559
6.00822
6.00677
6.00199
5.99599
5.99185
5.99095
1.40001
1.40001
1.40001
1.40001
1.40001
1.40001
1.40001
1.40001
1.40001
1.40001
1.40001
1.40001
1.40001
1.40001
1.40001
1.40001
1.40001
1.40001
1.40001
1.40001
1.40001
1.40001
1.40001
1.40001
1.40001
1.40001
1.40001
1.40001
1.40001
1.40001
1.40001
1.40001
1.40001
1.40001
1.40001
1.40001
1.40001
1.40001
1.40001
1.40001
1.40001
1.40001
1.40001
1.40001
1.40001
1.40001
1.40001
1.40001
1.40001
1.40001
1.40001
1.40001
1.40001
1.40001
1.40001
1.40001
1.40001
1.40001
1.40001
1.40001
1.40001
1.40001
1.40001
1.40001
1.40001
1.40001
1.40001
1.40001
1.40001
1.40001
1.40001
1.40001
1.40001
1.40001
1.40001
1.40001
1.40001
1.40001
1.40001
1.40001
1.40001
1.40001
1.40001
1.40001
1.40001
1.40001
1.40001
1.40001
1.40001
1.40001
1.40001
1.40001
1.40001
1.40001
1.40001
1.40001
1.40001
1.40001
2.46121
5.11755
5.39592
5.40604
5.42983
5.45211
5.46921
5.47706
5.47717
5.4791
5.48964
5.506
5.52384
5.53975
5.55166
5.55834
5.56047
5.56248
5.57125
5.58617
5.6029
5.61831
5.6308
5.6391
5.64305
5.64444
5.64699
5.65612
5.67254
5.69107
5.70812
5.71976
5.72406
5.72324
5.72318
5.72791
5.73979
5.75434
5.76749
5.77578
5.77926
5.78129
5.78566
5.79417
5.8055
5.81701
5.8266
5.83333
5.83778
5.84112
5.84484
5.85052
5.85893
5.86928
5.87949
5.88741
5.89209
5.89436
5.89626
5.90071
5.90934
5.91994
5.92776
5.93031
5.93045
5.93227
5.93781
5.94757
5.95832
5.96485
5.9654
5.96279
5.96122
5.96452
5.97329
5.9834
5.98927
5.99021
5.98955
5.98957
5.99167
5.99569
5.99836
5.99794
5.9966
5.9966
5.99919
6.00377
6.0068
6.00575
6.00121
5.99514
5.99075
5.98964
1.40001
1.40001
1.40001
1.40001
1.40001
1.40001
1.40001
1.40001
1.40001
1.40001
1.40001
1.40001
1.40001
1.40001
1.40001
1.40001
1.40001
1.40001
1.40001
1.40001
1.40001
1.40001
1.40001
1.40001
1.40001
1.40001
1.40001
1.40001
1.40001
1.40001
1.40001
1.40001
1.40001
1.40001
1.40001
1.40001
1.40001
1.40001
1.40001
1.40001
1.40001
1.40001
1.40001
1.40001
1.40001
1.40001
1.40001
1.40001
1.40001
1.40001
1.40001
1.40001
1.40001
1.40001
1.40001
1.40001
1.40001
1.40001
1.40001
1.40001
1.40001
1.40001
1.40001
1.40001
1.40001
1.40001
1.40001
1.40001
1.40001
1.40001
1.40001
1.40001
1.40001
1.40001
1.40001
1.40001
1.40001
1.40001
1.40001
1.40001
1.40001
1.40001
1.40001
1.40001
1.40001
1.40001
1.40001
1.40001
1.40001
1.40001
1.40001
1.40001
1.40001
1.40001
1.40001
1.40001
1.40001
1.40001
2.40366
5.09327
5.39631
5.40558
5.42887
5.4519
5.46951
5.47712
5.47671
5.47808
5.48909
5.50599
5.52419
5.54012
5.55171
5.55763
5.55838
5.55946
5.56972
5.58683
5.60501
5.62107
5.63315
5.63979
5.64151
5.64119
5.64386
5.65435
5.67198
5.69117
5.70803
5.71885
5.72231
5.72141
5.72209
5.72786
5.74021
5.75443
5.76677
5.77445
5.77786
5.78028
5.78516
5.79387
5.80497
5.81602
5.82519
5.8318
5.83631
5.8398
5.84375
5.84984
5.85881
5.86967
5.88004
5.88744
5.89111
5.89251
5.89378
5.89809
5.90718
5.91845
5.92682
5.92942
5.92952
5.93129
5.93685
5.94654
5.95718
5.96348
5.96376
5.96118
5.95981
5.96324
5.97192
5.98192
5.98788
5.98893
5.98819
5.98816
5.99042
5.99472
5.99757
5.99715
5.99566
5.99529
5.99739
6.00175
6.00496
6.00437
6.00025
5.99426
5.98957
5.98814
1.40001
1.40001
1.40001
1.40001
1.40001
1.40001
1.40001
1.40001
1.40001
1.40001
1.40001
1.40001
1.40001
1.40001
1.40001
1.40001
1.40001
1.40001
1.40001
1.40001
1.40001
1.40001
1.40001
1.40001
1.40001
1.40001
1.40001
1.40001
1.40001
1.40001
1.40001
1.40001
1.40001
1.40001
1.40001
1.40001
1.40001
1.40001
1.40001
1.40001
1.40001
1.40001
1.40001
1.40001
1.40001
1.40001
1.40001
1.40001
1.40001
1.40001
1.40001
1.40001
1.40001
1.40001
1.40001
1.40001
1.40001
1.40001
1.40001
1.40001
1.40001
1.40001
1.40001
1.40001
1.40001
1.40001
1.40001
1.40001
1.40001
1.40001
1.40001
1.40001
1.40001
1.40001
1.40001
1.40001
1.40001
1.40001
1.40001
1.40001
1.40001
1.40001
1.40001
1.40001
1.40001
1.40001
1.40001
1.40001
1.40001
1.40001
1.40001
1.40001
1.40001
1.40001
1.40001
1.40001
1.40001
1.40001
2.33778
5.0635
5.40037
5.40691
5.42856
5.45046
5.46778
5.47605
5.47667
5.47874
5.49
5.50676
5.52463
5.54008
5.5509
5.55614
5.55652
5.55777
5.56935
5.58806
5.60681
5.62303
5.63447
5.6396
5.63952
5.63842
5.64242
5.65437
5.67227
5.69095
5.70674
5.71632
5.71932
5.71896
5.72107
5.72827
5.74105
5.75469
5.76598
5.77297
5.77629
5.77908
5.78438
5.79316
5.80392
5.81453
5.82349
5.83023
5.83508
5.83896
5.84322
5.84943
5.85834
5.86905
5.8793
5.88636
5.88966
5.89096
5.89229
5.8967
5.90558
5.91642
5.92459
5.92747
5.92811
5.93059
5.93653
5.94604
5.95572
5.96117
5.96124
5.95911
5.95842
5.96219
5.97069
5.98011
5.98595
5.9873
5.98675
5.98694
5.98947
5.99373
5.99638
5.99592
5.99444
5.99393
5.99564
5.99971
6.00292
6.00264
5.99892
5.9931
5.98825
5.98652
1.40001
1.40001
1.40001
1.40001
1.40001
1.40001
1.40001
1.40001
1.40001
1.40001
1.40001
1.40001
1.40001
1.40001
1.40001
1.40001
1.40001
1.40001
1.40001
1.40001
1.40001
1.40001
1.40001
1.40001
1.40001
1.40001
1.40001
1.40001
1.40001
1.40001
1.40001
1.40001
1.40001
1.40001
1.40001
1.40001
1.40001
1.40001
1.40001
1.40001
1.40001
1.40001
1.40001
1.40001
1.40001
1.40001
1.40001
1.40001
1.40001
1.40001
1.40001
1.40001
1.40001
1.40001
1.40001
1.40001
1.40001
1.40001
1.40001
1.40001
1.40001
1.40001
1.40001
1.40001
1.40001
1.40001
1.40001
1.40001
1.40001
1.40001
1.40001
1.40001
1.40001
1.40001
1.40001
1.40001
1.40001
1.40001
1.40001
1.40001
1.40001
1.40001
1.40001
1.40001
1.40001
1.40001
1.40001
1.40001
1.40001
1.40001
1.40001
1.40001
1.40001
1.40001
1.40001
1.40001
1.40001
1.40001
2.26545
5.02599
5.40689
5.40969
5.42912
5.4486
5.46434
5.47334
5.4763
5.48029
5.49177
5.50787
5.52469
5.53927
5.5493
5.55433
5.55542
5.55767
5.57018
5.58925
5.60763
5.62337
5.63389
5.63785
5.63707
5.63671
5.64292
5.65608
5.6734
5.69064
5.7045
5.71252
5.71525
5.71608
5.72014
5.72901
5.74212
5.75501
5.76508
5.7712
5.77432
5.7774
5.78314
5.79217
5.80293
5.81326
5.82191
5.82858
5.83367
5.838
5.84274
5.84925
5.85803
5.86815
5.87764
5.88418
5.8876
5.88944
5.89152
5.89635
5.90464
5.91401
5.92098
5.92424
5.9262
5.92996
5.93687
5.94618
5.95436
5.95838
5.95807
5.95652
5.95691
5.96146
5.96983
5.97829
5.98346
5.98497
5.98492
5.98572
5.9888
5.99281
5.99483
5.99409
5.99263
5.99221
5.99382
5.99774
6.00086
6.00063
5.9971
5.99151
5.98675
5.98494
1.40001
1.40001
1.40001
1.40001
1.40001
1.40001
1.40001
1.40001
1.40001
1.40001
1.40001
1.40001
1.40001
1.40001
1.40001
1.40001
1.40001
1.40001
1.40001
1.40001
1.40001
1.40001
1.40001
1.40001
1.40001
1.40001
1.40001
1.40001
1.40001
1.40001
1.40001
1.40001
1.40001
1.40001
1.40001
1.40001
1.40001
1.40001
1.40001
1.40001
1.40001
1.40001
1.40001
1.40001
1.40001
1.40001
1.40001
1.40001
1.40001
1.40001
1.40001
1.40001
1.40001
1.40001
1.40001
1.40001
1.40001
1.40001
1.40001
1.40001
1.40001
1.40001
1.40001
1.40001
1.40001
1.40001
1.40001
1.40001
1.40001
1.40001
1.40001
1.40001
1.40001
1.40001
1.40001
1.40001
1.40001
1.40001
1.40001
1.40001
1.40001
1.40001
1.40001
1.40001
1.40001
1.40001
1.40001
1.40001
1.40001
1.40001
1.40001
1.40001
1.40001
1.40001
1.40001
1.40001
1.40001
1.40001
2.18905
4.97774
5.41164
5.41354
5.43166
5.44738
5.46059
5.47026
5.47601
5.48159
5.49291
5.50839
5.52417
5.53778
5.5473
5.55265
5.55493
5.55868
5.57179
5.59024
5.60754
5.62211
5.63149
5.63491
5.63456
5.63611
5.64498
5.65902
5.6751
5.69015
5.7016
5.70798
5.71059
5.71284
5.71914
5.72976
5.74312
5.75522
5.76392
5.76899
5.77172
5.77502
5.7815
5.79138
5.80255
5.81268
5.82061
5.82661
5.83149
5.83615
5.8416
5.84884
5.85786
5.86736
5.87557
5.88122
5.88482
5.88757
5.89102
5.89674
5.90447
5.91191
5.91699
5.92001
5.92342
5.92909
5.93749
5.94661
5.95309
5.95529
5.95437
5.95333
5.95496
5.96065
5.96896
5.97634
5.98054
5.98206
5.98276
5.98458
5.9884
5.992
5.99305
5.99177
5.99025
5.9901
5.99195
5.99597
5.99891
5.99839
5.9948
5.98947
5.9851
5.98347
1.40001
1.40001
1.40001
1.40001
1.40001
1.40001
1.40001
1.40001
1.40001
1.40001
1.40001
1.40001
1.40001
1.40001
1.40001
1.40001
1.40001
1.40001
1.40001
1.40001
1.40001
1.40001
1.40001
1.40001
1.40001
1.40001
1.40001
1.40001
1.40001
1.40001
1.40001
1.40001
1.40001
1.40001
1.40001
1.40001
1.40001
1.40001
1.40001
1.40001
1.40001
1.40001
1.40001
1.40001
1.40001
1.40001
1.40001
1.40001
1.40001
1.40001
1.40001
1.40001
1.40001
1.40001
1.40001
1.40001
1.40001
1.40001
1.40001
1.40001
1.40001
1.40001
1.40001
1.40001
1.40001
1.40001
1.40001
1.40001
1.40001
1.40001
1.40001
1.40001
1.40001
1.40001
1.40001
1.40001
1.40001
1.40001
1.40001
1.40001
1.40001
1.40001
1.40001
1.40001
1.40001
1.40001
1.40001
1.40001
1.40001
1.40001
1.40001
1.40001
1.40001
1.40001
1.40001
1.40001
1.40001
1.40001
2.1084
4.9229
5.41199
5.41693
5.43571
5.44792
5.45845
5.4676
5.47501
5.48181
5.49295
5.5079
5.523
5.53597
5.54527
5.55114
5.5549
5.56028
5.57344
5.59096
5.60687
5.61956
5.62756
5.63108
5.63206
5.63615
5.64766
5.66221
5.67691
5.68959
5.69854
5.70331
5.70579
5.70942
5.71797
5.7302
5.74381
5.75512
5.76234
5.76622
5.76836
5.77198
5.7798
5.79117
5.80311
5.81299
5.81978
5.82447
5.82845
5.83305
5.83947
5.84818
5.85804
5.86702
5.87363
5.87782
5.88115
5.88489
5.8902
5.89732
5.90461
5.91
5.91296
5.91533
5.91984
5.92774
5.93783
5.94686
5.95176
5.95226
5.95067
5.95001
5.95275
5.9595
5.96776
5.97421
5.97754
5.97892
5.98035
5.98341
5.98794
5.99108
5.99105
5.98904
5.98736
5.98761
5.99002
5.99434
5.99705
5.99597
5.99208
5.98702
5.9833
5.9821
1.40001
1.40001
1.40001
1.40001
1.40001
1.40001
1.40001
1.40001
1.40001
1.40001
1.40001
1.40001
1.40001
1.40001
1.40001
1.40001
1.40001
1.40001
1.40001
1.40001
1.40001
1.40001
1.40001
1.40001
1.40001
1.40001
1.40001
1.40001
1.40001
1.40001
1.40001
1.40001
1.40001
1.40001
1.40001
1.40001
1.40001
1.40001
1.40001
1.40001
1.40001
1.40001
1.40001
1.40001
1.40001
1.40001
1.40001
1.40001
1.40001
1.40001
1.40001
1.40001
1.40001
1.40001
1.40001
1.40001
1.40001
1.40001
1.40001
1.40001
1.40001
1.40001
1.40001
1.40001
1.40001
1.40001
1.40001
1.40001
1.40001
1.40001
1.40001
1.40001
1.40001
1.40001
1.40001
1.40001
1.40001
1.40001
1.40001
1.40001
1.40001
1.40001
1.40001
1.40001
1.40001
1.40001
1.40001
1.40001
1.40001
1.40001
1.40001
1.40001
1.40001
1.40001
1.40001
1.40001
1.40001
1.40001
2.0222
4.86404
5.40873
5.41901
5.43806
5.44896
5.45796
5.46577
5.47338
5.48084
5.49189
5.50647
5.52137
5.5342
5.54361
5.54998
5.55494
5.56144
5.57443
5.59102
5.6056
5.61653
5.62328
5.62694
5.62944
5.63641
5.64996
5.6648
5.67832
5.68892
5.69565
5.699
5.70133
5.70614
5.71654
5.73018
5.74408
5.75461
5.76035
5.763
5.76457
5.76878
5.77849
5.79172
5.80457
5.81397
5.81912
5.82191
5.82446
5.82875
5.83651
5.84735
5.8584
5.86688
5.87171
5.87428
5.87712
5.88176
5.88906
5.89761
5.90462
5.90819
5.90923
5.9109
5.9161
5.9259
5.93746
5.94647
5.95023
5.9494
5.94722
5.94667
5.95014
5.95763
5.96588
5.97176
5.97457
5.97582
5.97785
5.98215
5.98721
5.98983
5.98895
5.98617
5.98431
5.98497
5.98807
5.99272
5.99511
5.99328
5.98893
5.98413
5.98123
5.98062
1.40001
1.40001
1.40001
1.40001
1.40001
1.40001
1.40001
1.40001
1.40001
1.40001
1.40001
1.40001
1.40001
1.40001
1.40001
1.40001
1.40001
1.40001
1.40001
1.40001
1.40001
1.40001
1.40001
1.40001
1.40001
1.40001
1.40001
1.40001
1.40001
1.40001
1.40001
1.40001
1.40001
1.40001
1.40001
1.40001
1.40001
1.40001
1.40001
1.40001
1.40001
1.40001
1.40001
1.40001
1.40001
1.40001
1.40001
1.40001
1.40001
1.40001
1.40001
1.40001
1.40001
1.40001
1.40001
1.40001
1.40001
1.40001
1.40001
1.40001
1.40001
1.40001
1.40001
1.40001
1.40001
1.40001
1.40001
1.40001
1.40001
1.40001
1.40001
1.40001
1.40001
1.40001
1.40001
1.40001
1.40001
1.40001
1.40001
1.40001
1.40001
1.40001
1.40001
1.40001
1.40001
1.40001
1.40001
1.40001
1.40001
1.40001
1.40001
1.40001
1.40001
1.40001
1.40001
1.40001
1.40001
1.40001
1.93412
4.79716
5.40794
5.42102
5.43806
5.44842
5.45678
5.46364
5.47115
5.47938
5.49056
5.50497
5.51997
5.53294
5.54258
5.54923
5.55484
5.56189
5.57455
5.59029
5.60394
5.61375
5.61971
5.62356
5.62739
5.63639
5.65105
5.6661
5.67892
5.68792
5.69295
5.69522
5.69744
5.70322
5.71498
5.72971
5.74381
5.7536
5.75796
5.75952
5.76074
5.76586
5.77763
5.79269
5.80624
5.81488
5.818
5.81871
5.81999
5.82414
5.83357
5.84653
5.85858
5.86639
5.86939
5.87063
5.87313
5.87862
5.8876
5.89725
5.90393
5.90608
5.90582
5.90706
5.91274
5.92372
5.93624
5.94523
5.9483
5.94674
5.94427
5.9437
5.94738
5.9551
5.96337
5.96905
5.97173
5.97305
5.97552
5.9807
5.9859
5.98792
5.98639
5.98307
5.98115
5.98219
5.98597
5.99085
5.99281
5.99025
5.98546
5.98097
5.97893
5.97893
1.40001
1.40001
1.40001
1.40001
1.40001
1.40001
1.40001
1.40001
1.40001
1.40001
1.40001
1.40001
1.40001
1.40001
1.40001
1.40001
1.40001
1.40001
1.40001
1.40001
1.40001
1.40001
1.40001
1.40001
1.40001
1.40001
1.40001
1.40001
1.40001
1.40001
1.40001
1.40001
1.40001
1.40001
1.40001
1.40001
1.40001
1.40001
1.40001
1.40001
1.40001
1.40001
1.40001
1.40001
1.40001
1.40001
1.40001
1.40001
1.40001
1.40001
1.40001
1.40001
1.40001
1.40001
1.40001
1.40001
1.40001
1.40001
1.40001
1.40001
1.40001
1.40001
1.40001
1.40001
1.40001
1.40001
1.40001
1.40001
1.40001
1.40001
1.40001
1.40001
1.40001
1.40001
1.40001
1.40001
1.40001
1.40001
1.40001
1.40001
1.40001
1.40001
1.40001
1.40001
1.40001
1.40001
1.40001
1.40001
1.40001
1.40001
1.40001
1.40001
1.40001
1.40001
1.40001
1.40001
1.40001
1.40001
1.84833
4.71823
5.40689
5.42147
5.43663
5.44671
5.45498
5.4617
5.46909
5.47778
5.48907
5.50333
5.5185
5.53161
5.54149
5.54842
5.55453
5.56184
5.57389
5.58867
5.6017
5.61104
5.61682
5.6211
5.62604
5.63587
5.65077
5.66585
5.67834
5.6863
5.69023
5.6919
5.69411
5.70062
5.71319
5.7286
5.74281
5.75204
5.75535
5.75617
5.75736
5.76377
5.77736
5.7936
5.80715
5.81449
5.81563
5.81492
5.8155
5.8202
5.8316
5.84592
5.85801
5.86458
5.86614
5.86681
5.86956
5.87618
5.88632
5.89641
5.90234
5.90319
5.90243
5.9038
5.91017
5.92185
5.93455
5.94306
5.94554
5.94379
5.94145
5.94101
5.94467
5.9522
5.96033
5.96605
5.96893
5.97058
5.97348
5.97895
5.98385
5.98528
5.98333
5.97986
5.97811
5.97953
5.98385
5.98868
5.99012
5.98697
5.98188
5.97778
5.97651
5.97696
1.40001
1.40001
1.40001
1.40001
1.40001
1.40001
1.40001
1.40001
1.40001
1.40001
1.40001
1.40001
1.40001
1.40001
1.40001
1.40001
1.40001
1.40001
1.40001
1.40001
1.40001
1.40001
1.40001
1.40001
1.40001
1.40001
1.40001
1.40001
1.40001
1.40001
1.40001
1.40001
1.40001
1.40001
1.40001
1.40001
1.40001
1.40001
1.40001
1.40001
1.40001
1.40001
1.40001
1.40001
1.40001
1.40001
1.40001
1.40001
1.40001
1.40001
1.40001
1.40001
1.40001
1.40001
1.40001
1.40001
1.40001
1.40001
1.40001
1.40001
1.40001
1.40001
1.40001
1.40001
1.40001
1.40001
1.40001
1.40001
1.40001
1.40001
1.40001
1.40001
1.40001
1.40001
1.40001
1.40001
1.40001
1.40001
1.40001
1.40001
1.40001
1.40001
1.40001
1.40001
1.40001
1.40001
1.40001
1.40001
1.40001
1.40001
1.40001
1.40001
1.40001
1.40001
1.40001
1.40001
1.40001
1.40001
1.76609
4.62643
5.40479
5.42027
5.43406
5.44447
5.45325
5.46049
5.46783
5.47652
5.4876
5.50159
5.51665
5.5299
5.54015
5.54762
5.55423
5.5618
5.57269
5.58596
5.59822
5.60762
5.61413
5.61957
5.62567
5.63538
5.64936
5.6637
5.67582
5.68355
5.68724
5.68887
5.69121
5.69825
5.7111
5.72673
5.74083
5.74958
5.75233
5.75296
5.75471
5.76288
5.77784
5.79413
5.80649
5.81185
5.81148
5.81012
5.81113
5.81791
5.83113
5.84565
5.85644
5.861
5.86153
5.86247
5.86638
5.87491
5.88587
5.89515
5.89954
5.89917
5.89831
5.90051
5.90821
5.92061
5.93285
5.94026
5.94199
5.94036
5.9385
5.93855
5.9423
5.9494
5.95705
5.96271
5.9659
5.96805
5.97136
5.97662
5.98089
5.98183
5.97974
5.97658
5.97529
5.97705
5.98166
5.98617
5.98702
5.98345
5.97825
5.97456
5.97388
5.9746
1.40001
1.40001
1.40001
1.40001
1.40001
1.40001
1.40001
1.40001
1.40001
1.40001
1.40001
1.40001
1.40001
1.40001
1.40001
1.40001
1.40001
1.40001
1.40001
1.40001
1.40001
1.40001
1.40001
1.40001
1.40001
1.40001
1.40001
1.40001
1.40001
1.40001
1.40001
1.40001
1.40001
1.40001
1.40001
1.40001
1.40001
1.40001
1.40001
1.40001
1.40001
1.40001
1.40001
1.40001
1.40001
1.40001
1.40001
1.40001
1.40001
1.40001
1.40001
1.40001
1.40001
1.40001
1.40001
1.40001
1.40001
1.40001
1.40001
1.40001
1.40001
1.40001
1.40001
1.40001
1.40001
1.40001
1.40001
1.40001
1.40001
1.40001
1.40001
1.40001
1.40001
1.40001
1.40001
1.40001
1.40001
1.40001
1.40001
1.40001
1.40001
1.40001
1.40001
1.40001
1.40001
1.40001
1.40001
1.40001
1.40001
1.40001
1.40001
1.40001
1.40001
1.40001
1.40001
1.40001
1.40001
1.40001
1.68624
4.52527
5.40563
5.42012
5.43217
5.44323
5.45271
5.46072
5.46803
5.4763
5.4867
5.49995
5.51452
5.52783
5.53866
5.54714
5.55458
5.56243
5.57201
5.58329
5.59441
5.60388
5.61146
5.61834
5.62577
5.63547
5.64822
5.66138
5.67275
5.68043
5.68436
5.68627
5.68897
5.69657
5.70941
5.7248
5.73842
5.74654
5.74901
5.75006
5.75322
5.76354
5.77927
5.79447
5.80437
5.8068
5.80531
5.80436
5.80743
5.81782
5.83267
5.84609
5.85401
5.85564
5.85531
5.85717
5.86365
5.87501
5.88663
5.89383
5.89538
5.89385
5.89321
5.89693
5.9069
5.92019
5.93143
5.93698
5.93749
5.93599
5.93484
5.93583
5.94015
5.9469
5.95381
5.95909
5.9625
5.96523
5.96896
5.97382
5.97732
5.97785
5.97584
5.97333
5.9727
5.97475
5.97936
5.98327
5.98346
5.97963
5.97451
5.97125
5.97098
5.97182
1.40001
1.40001
1.40001
1.40001
1.40001
1.40001
1.40001
1.40001
1.40001
1.40001
1.40001
1.40001
1.40001
1.40001
1.40001
1.40001
1.40001
1.40001
1.40001
1.40001
1.40001
1.40001
1.40001
1.40001
1.40001
1.40001
1.40001
1.40001
1.40001
1.40001
1.40001
1.40001
1.40001
1.40001
1.40001
1.40001
1.40001
1.40001
1.40001
1.40001
1.40001
1.40001
1.40001
1.40001
1.40001
1.40001
1.40001
1.40001
1.40001
1.40001
1.40001
1.40001
1.40001
1.40001
1.40001
1.40001
1.40001
1.40001
1.40001
1.40001
1.40001
1.40001
1.40001
1.40001
1.40001
1.40001
1.40001
1.40001
1.40001
1.40001
1.40001
1.40001
1.40001
1.40001
1.40001
1.40001
1.40001
1.40001
1.40001
1.40001
1.40001
1.40001
1.40001
1.40001
1.40001
1.40001
1.40001
1.40001
1.40001
1.40001
1.40001
1.40001
1.40001
1.40001
1.40001
1.40001
1.40001
1.40001
1.60755
4.4165
5.41282
5.41992
5.42973
5.44132
5.4518
5.461
5.46886
5.47693
5.48654
5.49846
5.5121
5.52545
5.53708
5.54675
5.55502
5.56291
5.57105
5.5803
5.59032
5.59994
5.60867
5.61702
5.62561
5.63519
5.64669
5.65869
5.66936
5.67709
5.68152
5.68396
5.68734
5.69573
5.70834
5.72289
5.73539
5.74264
5.74511
5.74719
5.75276
5.76541
5.78117
5.79418
5.80072
5.80006
5.79753
5.79801
5.80486
5.81937
5.83547
5.84658
5.85056
5.84923
5.84801
5.85131
5.86165
5.87617
5.88788
5.89258
5.89062
5.88753
5.88722
5.89321
5.90612
5.92032
5.93011
5.93342
5.93237
5.9308
5.93057
5.93298
5.93841
5.94496
5.95086
5.95534
5.95866
5.96189
5.96606
5.97059
5.97339
5.97349
5.97169
5.96992
5.97
5.97242
5.97681
5.98005
5.97956
5.97552
5.97068
5.96783
5.96785
5.96868
1.40001
1.40001
1.40001
1.40001
1.40001
1.40001
1.40001
1.40001
1.40001
1.40001
1.40001
1.40001
1.40001
1.40001
1.40001
1.40001
1.40001
1.40001
1.40001
1.40001
1.40001
1.40001
1.40001
1.40001
1.40001
1.40001
1.40001
1.40001
1.40001
1.40001
1.40001
1.40001
1.40001
1.40001
1.40001
1.40001
1.40001
1.40001
1.40001
1.40001
1.40001
1.40001
1.40001
1.40001
1.40001
1.40001
1.40001
1.40001
1.40001
1.40001
1.40001
1.40001
1.40001
1.40001
1.40001
1.40001
1.40001
1.40001
1.40001
1.40001
1.40001
1.40001
1.40001
1.40001
1.40001
1.40001
1.40001
1.40001
1.40001
1.40001
1.40001
1.40001
1.40001
1.40001
1.40001
1.40001
1.40001
1.40001
1.40001
1.40001
1.40001
1.40001
1.40001
1.40001
1.40001
1.40001
1.40001
1.40001
1.40001
1.40001
1.40001
1.40001
1.40001
1.40001
1.40001
1.40001
1.40001
1.40001
1.52845
4.29819
5.41939
5.41879
5.42666
5.43866
5.44996
5.4603
5.46905
5.47736
5.48638
5.49695
5.50937
5.52253
5.53488
5.54561
5.55465
5.56265
5.56982
5.57754
5.58669
5.59629
5.60569
5.61503
5.62449
5.63406
5.64479
5.65606
5.66614
5.67373
5.67859
5.68176
5.68634
5.69567
5.70798
5.72125
5.73205
5.73801
5.74056
5.74427
5.75293
5.76751
5.78263
5.79296
5.79566
5.79276
5.78961
5.79206
5.80359
5.82168
5.83777
5.84645
5.8461
5.84233
5.84047
5.84593
5.86056
5.87769
5.88857
5.89012
5.8854
5.8805
5.88077
5.88977
5.90565
5.92059
5.92849
5.92917
5.92678
5.92491
5.92573
5.93018
5.93703
5.94336
5.94794
5.95123
5.95416
5.95781
5.96261
5.96706
5.9693
5.96899
5.96741
5.96637
5.96711
5.96995
5.97405
5.97655
5.9754
5.97122
5.96671
5.96422
5.96444
5.96518
1.40001
1.40001
1.40001
1.40001
1.40001
1.40001
1.40001
1.40001
1.40001
1.40001
1.40001
1.40001
1.40001
1.40001
1.40001
1.40001
1.40001
1.40001
1.40001
1.40001
1.40001
1.40001
1.40001
1.40001
1.40001
1.40001
1.40001
1.40001
1.40001
1.40001
1.40001
1.40001
1.40001
1.40001
1.40001
1.40001
1.40001
1.40001
1.40001
1.40001
1.40001
1.40001