/*--------------------------------*- C++ -*----------------------------------*\
  =========                 |
  \\      /  F ield         | OpenFOAM: The Open Source CFD Toolbox
   \\    /   O peration     | Website:  https://openfoam.org
    \\  /    A nd           | Version:  7
     \\/     M anipulation  |
\*---------------------------------------------------------------------------*/
FoamFile
{
    version     2.0;
    format      ascii;
    class       volScalarField;
    location    "3.4";
    object      T;
}
// * * * * * * * * * * * * * * * * * * * * * * * * * * * * * * * * * * * * * //

dimensions      [0 0 0 1 0 0 0];

internalField   nonuniform List<scalar> 
258048
(
1
1
1
1
1
1
1
1
1
1
1
1
1
1
1
1
1
1
1
1
1
1
1
1
1
1
1
1
1
1
1
1
1
1
1
1
1
1
1
1
1
1
1
1
1
1
1
1
1
1
1
1
1
1
1
1
1
1
1
1
1
1
1
1
1
1
1
1
1
1
1
1
1
1
1
1
1
1
1
1
1
1
1
1
1
1
1
1
1
1
1
1
1
1
1
1
1
1
1.7901
2.61954
2.68648
2.69169
2.69481
2.69581
2.69584
2.69554
2.6959
2.69789
2.70161
2.70631
2.71077
2.71382
2.71529
2.71594
2.71678
2.71843
2.72083
2.72343
2.72568
2.72746
2.72909
2.73093
2.73295
2.73479
2.73621
2.73748
2.73925
2.74163
2.7443
2.74675
2.74847
2.74934
2.74992
2.75089
2.75254
2.7547
2.75701
2.75905
2.76057
2.76168
2.76265
2.76368
2.76489
2.76636
2.76819
2.77033
2.77245
2.77403
2.77477
2.77482
2.77468
2.77491
2.77608
2.77825
2.78084
2.78309
2.78449
2.78512
2.78553
2.78615
2.78707
2.7879
2.78832
2.78863
2.78921
2.79023
2.79183
2.79358
2.79468
2.79479
2.79445
2.79434
2.79505
2.79663
2.79835
2.79936
2.7995
2.7991
2.79859
2.79855
2.79945
2.8009
2.80233
2.8036
2.80482
2.80619
2.80758
2.80876
2.80958
2.80999
2.80995
2.80986
1
1
1
1
1
1
1
1
1
1
1
1
1
1
1
1
1
1
1
1
1
1
1
1
1
1
1
1
1
1
1
1
1
1
1
1
1
1
1
1
1
1
1
1
1
1
1
1
1
1
1
1
1
1
1
1
1
1
1
1
1
1
1
1
1
1
1
1
1
1
1
1
1
1
1
1
1
1
1
1
1
1
1
1
1
1
1
1
1
1
1
1
1
1
1
1
1
1
1.78698
2.62017
2.68552
2.69102
2.69448
2.69579
2.69602
2.69583
2.69616
2.69803
2.70165
2.70623
2.71066
2.71384
2.71544
2.71612
2.71686
2.71828
2.72044
2.72292
2.72527
2.72727
2.72909
2.731
2.73298
2.73474
2.73614
2.73746
2.73929
2.7417
2.74437
2.74681
2.74846
2.74926
2.74979
2.75079
2.75254
2.75481
2.75716
2.75912
2.76047
2.76144
2.76238
2.76353
2.76492
2.76655
2.76841
2.77042
2.77231
2.77374
2.77449
2.77467
2.7747
2.77511
2.77635
2.77845
2.78088
2.78298
2.7843
2.78495
2.78541
2.78606
2.78697
2.78779
2.78825
2.78864
2.78929
2.79037
2.79191
2.79351
2.79447
2.79457
2.79432
2.79435
2.79516
2.79671
2.79829
2.79918
2.79932
2.79903
2.79863
2.79868
2.79952
2.80081
2.8021
2.8034
2.80475
2.80622
2.80762
2.80874
2.8095
2.8099
2.8099
2.80985
1
1
1
1
1
1
1
1
1
1
1
1
1
1
1
1
1
1
1
1
1
1
1
1
1
1
1
1
1
1
1
1
1
1
1
1
1
1
1
1
1
1
1
1
1
1
1
1
1
1
1
1
1
1
1
1
1
1
1
1
1
1
1
1
1
1
1
1
1
1
1
1
1
1
1
1
1
1
1
1
1
1
1
1
1
1
1
1
1
1
1
1
1
1
1
1
1
1
1.77934
2.61955
2.68461
2.69024
2.69415
2.69585
2.6964
2.69634
2.69653
2.69804
2.70137
2.70583
2.71034
2.71376
2.71561
2.7164
2.71702
2.7181
2.71987
2.72216
2.72463
2.72694
2.72906
2.73111
2.73304
2.73466
2.73594
2.73729
2.73925
2.74177
2.74453
2.74694
2.74849
2.74913
2.74953
2.7505
2.75237
2.75483
2.75732
2.75924
2.76042
2.76114
2.76194
2.76315
2.76477
2.76667
2.76864
2.77054
2.77217
2.77334
2.774
2.77431
2.77458
2.77527
2.77669
2.77874
2.78096
2.78281
2.78401
2.78467
2.78521
2.78596
2.78688
2.78765
2.7881
2.78856
2.78931
2.79051
2.79206
2.79349
2.79425
2.79425
2.79407
2.7943
2.7953
2.79686
2.79827
2.79894
2.799
2.7988
2.79858
2.79885
2.79972
2.80078
2.80183
2.80307
2.80457
2.8062
2.80766
2.80872
2.80942
2.80978
2.80983
2.80986
1
1
1
1
1
1
1
1
1
1
1
1
1
1
1
1
1
1
1
1
1
1
1
1
1
1
1
1
1
1
1
1
1
1
1
1
1
1
1
1
1
1
1
1
1
1
1
1
1
1
1
1
1
1
1
1
1
1
1
1
1
1
1
1
1
1
1
1
1
1
1
1
1
1
1
1
1
1
1
1
1
1
1
1
1
1
1
1
1
1
1
1
1
1
1
1
1
1
1.7673
2.61804
2.68387
2.68913
2.69356
2.69579
2.69683
2.69702
2.69705
2.698
2.70081
2.70517
2.70988
2.71364
2.71581
2.71669
2.7171
2.71775
2.71908
2.72118
2.7238
2.72651
2.72901
2.73123
2.73309
2.73448
2.73553
2.73689
2.73906
2.74178
2.74467
2.74709
2.7485
2.74892
2.74918
2.75011
2.75215
2.75481
2.75742
2.75929
2.76026
2.76077
2.76147
2.7628
2.7647
2.76683
2.76884
2.77054
2.77185
2.77278
2.77342
2.77392
2.77455
2.7756
2.77718
2.77909
2.78097
2.78248
2.78351
2.78422
2.78495
2.78589
2.78687
2.78753
2.7879
2.7884
2.78926
2.79061
2.7922
2.79347
2.79401
2.79389
2.79375
2.79418
2.79542
2.79701
2.79821
2.79867
2.79863
2.79848
2.79851
2.79905
2.79991
2.80072
2.80152
2.80267
2.80429
2.80612
2.80767
2.80868
2.80931
2.80962
2.80971
2.8098
1
1
1
1
1
1
1
1
1
1
1
1
1
1
1
1
1
1
1
1
1
1
1
1
1
1
1
1
1
1
1
1
1
1
1
1
1
1
1
1
1
1
1
1
1
1
1
1
1
1
1
1
1
1
1
1
1
1
1
1
1
1
1
1
1
1
1
1
1
1
1
1
1
1
1
1
1
1
1
1
1
1
1
1
1
1
1
1
1
1
1
1
1
1
1
1
1
1
1.75303
2.61506
2.6833
2.68809
2.69289
2.69566
2.69719
2.69766
2.69749
2.6979
2.70015
2.70443
2.70936
2.71352
2.71603
2.71699
2.71718
2.71739
2.71826
2.72021
2.72302
2.72609
2.72895
2.73133
2.73308
2.73416
2.73491
2.73623
2.73866
2.74169
2.7448
2.74726
2.74852
2.74871
2.7488
2.74968
2.75188
2.75474
2.75741
2.75922
2.76003
2.76039
2.76106
2.76253
2.76466
2.76693
2.76891
2.7704
2.77142
2.77215
2.77277
2.77348
2.77451
2.77595
2.77768
2.77944
2.78094
2.78204
2.78285
2.78362
2.78461
2.78584
2.78692
2.78748
2.78769
2.78814
2.78909
2.7906
2.79227
2.79347
2.79382
2.79353
2.79339
2.79398
2.79543
2.7971
2.79814
2.7984
2.79828
2.79815
2.79838
2.79919
2.80006
2.80065
2.80125
2.80228
2.80395
2.80593
2.8076
2.8086
2.8092
2.80946
2.80955
2.80969
1
1
1
1
1
1
1
1
1
1
1
1
1
1
1
1
1
1
1
1
1
1
1
1
1
1
1
1
1
1
1
1
1
1
1
1
1
1
1
1
1
1
1
1
1
1
1
1
1
1
1
1
1
1
1
1
1
1
1
1
1
1
1
1
1
1
1
1
1
1
1
1
1
1
1
1
1
1
1
1
1
1
1
1
1
1
1
1
1
1
1
1
1
1
1
1
1
1
1.73428
2.6112
2.68278
2.68712
2.69224
2.69561
2.69761
2.6982
2.69772
2.6976
2.69937
2.70358
2.70874
2.71325
2.71606
2.71711
2.71715
2.71696
2.71749
2.71945
2.72252
2.7259
2.729
2.73142
2.73294
2.73366
2.73411
2.73544
2.73815
2.74151
2.74485
2.74732
2.74841
2.74838
2.74836
2.74922
2.75156
2.75454
2.75726
2.759
2.75971
2.76002
2.76074
2.76234
2.7646
2.7669
2.7688
2.77011
2.77094
2.77153
2.77216
2.7731
2.77448
2.77625
2.7781
2.7797
2.78084
2.78156
2.78211
2.78292
2.78421
2.78578
2.787
2.78745
2.7875
2.78786
2.78883
2.79049
2.79229
2.79345
2.79364
2.79324
2.79304
2.7937
2.79531
2.79707
2.79806
2.79817
2.79797
2.79785
2.79821
2.79921
2.80011
2.80057
2.80103
2.80194
2.80358
2.80564
2.80741
2.80847
2.80907
2.80929
2.80937
2.8095
1
1
1
1
1
1
1
1
1
1
1
1
1
1
1
1
1
1
1
1
1
1
1
1
1
1
1
1
1
1
1
1
1
1
1
1
1
1
1
1
1
1
1
1
1
1
1
1
1
1
1
1
1
1
1
1
1
1
1
1
1
1
1
1
1
1
1
1
1
1
1
1
1
1
1
1
1
1
1
1
1
1
1
1
1
1
1
1
1
1
1
1
1
1
1
1
1
1
1.71099
2.60573
2.68201
2.68644
2.69188
2.69574
2.69809
2.69862
2.69775
2.6972
2.69874
2.70284
2.70812
2.71291
2.71601
2.71713
2.71701
2.71645
2.71693
2.71904
2.72229
2.72585
2.72909
2.7314
2.73257
2.73297
2.73326
2.73466
2.73766
2.74131
2.74477
2.74718
2.74812
2.74799
2.74794
2.74883
2.75125
2.75427
2.75696
2.75865
2.75933
2.75967
2.76046
2.76213
2.76441
2.76668
2.7685
2.76971
2.77046
2.771
2.77168
2.77279
2.77443
2.77641
2.77834
2.77982
2.78068
2.78108
2.78142
2.78222
2.78375
2.78563
2.78699
2.78738
2.78734
2.7876
2.78854
2.79028
2.7922
2.79335
2.79344
2.79297
2.79274
2.79343
2.79509
2.79691
2.7979
2.79796
2.7977
2.79759
2.79802
2.79912
2.80005
2.80047
2.80084
2.80164
2.80322
2.80528
2.80712
2.80827
2.80891
2.80913
2.80915
2.80924
1
1
1
1
1
1
1
1
1
1
1
1
1
1
1
1
1
1
1
1
1
1
1
1
1
1
1
1
1
1
1
1
1
1
1
1
1
1
1
1
1
1
1
1
1
1
1
1
1
1
1
1
1
1
1
1
1
1
1
1
1
1
1
1
1
1
1
1
1
1
1
1
1
1
1
1
1
1
1
1
1
1
1
1
1
1
1
1
1
1
1
1
1
1
1
1
1
1
1.68411
2.59928
2.68163
2.68593
2.69134
2.69553
2.69815
2.69872
2.69773
2.69698
2.69837
2.70222
2.7074
2.71232
2.71569
2.71691
2.71668
2.71597
2.71659
2.71888
2.7222
2.72583
2.72908
2.73118
2.73203
2.73218
2.73253
2.73408
2.73721
2.74098
2.74443
2.74674
2.74761
2.74749
2.74757
2.74858
2.75104
2.75399
2.75656
2.75818
2.75888
2.7593
2.76016
2.76185
2.76409
2.76631
2.76808
2.76928
2.77004
2.77061
2.77134
2.77255
2.77433
2.77641
2.77837
2.77975
2.78041
2.78065
2.78088
2.78166
2.78329
2.78531
2.78679
2.78719
2.78714
2.7874
2.78835
2.79008
2.79198
2.79308
2.79312
2.79266
2.79247
2.79318
2.79482
2.79663
2.79764
2.79772
2.79746
2.79736
2.79784
2.79895
2.79988
2.80031
2.80064
2.80137
2.80286
2.80487
2.80676
2.80801
2.80871
2.80895
2.80892
2.80894
1
1
1
1
1
1
1
1
1
1
1
1
1
1
1
1
1
1
1
1
1
1
1
1
1
1
1
1
1
1
1
1
1
1
1
1
1
1
1
1
1
1
1
1
1
1
1
1
1
1
1
1
1
1
1
1
1
1
1
1
1
1
1
1
1
1
1
1
1
1
1
1
1
1
1
1
1
1
1
1
1
1
1
1
1
1
1
1
1
1
1
1
1
1
1
1
1
1
1.65201
2.59116
2.6814
2.68536
2.69064
2.69498
2.69788
2.69867
2.69793
2.6972
2.69835
2.7017
2.70646
2.71129
2.7149
2.71642
2.71629
2.71573
2.71654
2.71894
2.72218
2.72571
2.7288
2.73071
2.73136
2.73151
2.73216
2.73388
2.73689
2.74048
2.74376
2.74595
2.74684
2.7469
2.74725
2.74848
2.75094
2.75374
2.75613
2.75766
2.75838
2.75888
2.75981
2.76151
2.7637
2.76585
2.7676
2.76883
2.76966
2.7703
2.7711
2.77235
2.77413
2.77621
2.77813
2.77942
2.78002
2.78025
2.78049
2.78131
2.78293
2.78488
2.78633
2.7868
2.78685
2.78725
2.78828
2.78998
2.79169
2.79264
2.79264
2.79226
2.79219
2.79297
2.79458
2.7963
2.79728
2.79741
2.7972
2.79716
2.7977
2.79879
2.79965
2.80007
2.80039
2.80109
2.80251
2.80446
2.80636
2.80768
2.80845
2.80871
2.80864
2.80861
1
1
1
1
1
1
1
1
1
1
1
1
1
1
1
1
1
1
1
1
1
1
1
1
1
1
1
1
1
1
1
1
1
1
1
1
1
1
1
1
1
1
1
1
1
1
1
1
1
1
1
1
1
1
1
1
1
1
1
1
1
1
1
1
1
1
1
1
1
1
1
1
1
1
1
1
1
1
1
1
1
1
1
1
1
1
1
1
1
1
1
1
1
1
1
1
1
1
1.6157
2.58118
2.68097
2.68443
2.68963
2.69407
2.69732
2.69854
2.69822
2.69771
2.6986
2.70131
2.70536
2.70983
2.7136
2.71565
2.71599
2.71582
2.71682
2.71914
2.72204
2.72523
2.72805
2.72985
2.73058
2.73109
2.73219
2.73402
2.73677
2.73998
2.74293
2.74492
2.74586
2.74622
2.74695
2.74846
2.75092
2.75352
2.75566
2.75705
2.75779
2.75838
2.75941
2.76114
2.76331
2.76542
2.76712
2.76836
2.76923
2.76997
2.77085
2.77216
2.77393
2.7759
2.77768
2.77889
2.77951
2.77984
2.78023
2.78115
2.78269
2.78438
2.78561
2.78616
2.78646
2.7871
2.78832
2.78999
2.79143
2.79211
2.79204
2.79176
2.79189
2.79282
2.7944
2.79596
2.79683
2.79698
2.79686
2.79695
2.79761
2.79863
2.79937
2.79971
2.80004
2.80076
2.80215
2.80407
2.80596
2.8073
2.80811
2.8084
2.80833
2.80827
1
1
1
1
1
1
1
1
1
1
1
1
1
1
1
1
1
1
1
1
1
1
1
1
1
1
1
1
1
1
1
1
1
1
1
1
1
1
1
1
1
1
1
1
1
1
1
1
1
1
1
1
1
1
1
1
1
1
1
1
1
1
1
1
1
1
1
1
1
1
1
1
1
1
1
1
1
1
1
1
1
1
1
1
1
1
1
1
1
1
1
1
1
1
1
1
1
1
1.57606
2.56903
2.68059
2.68337
2.68851
2.69279
2.69638
2.69831
2.69855
2.69835
2.69901
2.7011
2.70434
2.70827
2.71201
2.7146
2.71566
2.71609
2.71735
2.71939
2.72175
2.72443
2.72693
2.72869
2.72975
2.73086
2.73245
2.73439
2.73683
2.73952
2.74197
2.74371
2.74473
2.74546
2.74665
2.74846
2.7509
2.75329
2.75514
2.75635
2.75707
2.75777
2.75897
2.76084
2.76306
2.76511
2.76668
2.76781
2.76867
2.76947
2.77049
2.77193
2.77375
2.77561
2.77717
2.77821
2.77886
2.77937
2.78003
2.78114
2.78258
2.78393
2.78481
2.78532
2.78589
2.7869
2.78842
2.79005
2.79117
2.79151
2.79133
2.79115
2.79151
2.79265
2.79422
2.79558
2.79628
2.79644
2.79646
2.79675
2.79756
2.79848
2.79904
2.79927
2.79957
2.80036
2.80178
2.80372
2.80557
2.80685
2.80768
2.80801
2.80798
2.80794
1
1
1
1
1
1
1
1
1
1
1
1
1
1
1
1
1
1
1
1
1
1
1
1
1
1
1
1
1
1
1
1
1
1
1
1
1
1
1
1
1
1
1
1
1
1
1
1
1
1
1
1
1
1
1
1
1
1
1
1
1
1
1
1
1
1
1
1
1
1
1
1
1
1
1
1
1
1
1
1
1
1
1
1
1
1
1
1
1
1
1
1
1
1
1
1
1
1
1.5319
2.55493
2.68056
2.68266
2.68751
2.69152
2.69527
2.6978
2.69871
2.69884
2.69944
2.70108
2.7036
2.70691
2.71045
2.71341
2.71523
2.71632
2.71786
2.7197
2.72154
2.72357
2.72558
2.72735
2.72884
2.73058
2.73279
2.73488
2.737
2.73911
2.74099
2.74242
2.74352
2.74466
2.74633
2.74843
2.75084
2.75299
2.75453
2.75552
2.75618
2.75701
2.75851
2.76066
2.763
2.76497
2.76632
2.76723
2.76794
2.76875
2.76996
2.77168
2.77365
2.77542
2.77667
2.77745
2.77805
2.77874
2.77977
2.78114
2.78252
2.7835
2.784
2.78438
2.78517
2.78661
2.78845
2.79007
2.7909
2.79092
2.7906
2.7905
2.79108
2.79241
2.79398
2.79517
2.79572
2.79586
2.79602
2.79656
2.7975
2.7983
2.79865
2.79875
2.79901
2.79988
2.8014
2.8034
2.80519
2.80636
2.80717
2.80754
2.80761
2.80763
1
1
1
1
1
1
1
1
1
1
1
1
1
1
1
1
1
1
1
1
1
1
1
1
1
1
1
1
1
1
1
1
1
1
1
1
1
1
1
1
1
1
1
1
1
1
1
1
1
1
1
1
1
1
1
1
1
1
1
1
1
1
1
1
1
1
1
1
1
1
1
1
1
1
1
1
1
1
1
1
1
1
1
1
1
1
1
1
1
1
1
1
1
1
1
1
1
1
1.48093
2.53825
2.6805
2.68249
2.68673
2.69047
2.69422
2.69708
2.69855
2.69908
2.69981
2.70118
2.70323
2.70596
2.70915
2.71223
2.71464
2.71634
2.71817
2.71993
2.7214
2.72284
2.72433
2.72596
2.72778
2.73022
2.73301
2.7353
2.73716
2.73875
2.74008
2.74118
2.74233
2.74383
2.74594
2.7483
2.7507
2.75265
2.75386
2.75459
2.75518
2.75619
2.75808
2.7606
2.76308
2.76495
2.76598
2.76654
2.76702
2.76781
2.76928
2.7714
2.77359
2.77525
2.77617
2.77664
2.77716
2.77803
2.77944
2.78109
2.78243
2.78308
2.78323
2.78349
2.78442
2.78622
2.78835
2.78996
2.79058
2.79037
2.78992
2.78985
2.79057
2.79204
2.79361
2.7947
2.79516
2.79529
2.79557
2.79634
2.79739
2.79807
2.79825
2.79822
2.79842
2.79938
2.801
2.80309
2.8048
2.80581
2.80656
2.80698
2.80719
2.80732
1
1
1
1
1
1
1
1
1
1
1
1
1
1
1
1
1
1
1
1
1
1
1
1
1
1
1
1
1
1
1
1
1
1
1
1
1
1
1
1
1
1
1
1
1
1
1
1
1
1
1
1
1
1
1
1
1
1
1
1
1
1
1
1
1
1
1
1
1
1
1
1
1
1
1
1
1
1
1
1
1
1
1
1
1
1
1
1
1
1
1
1
1
1
1
1
1
1
1.42577
2.51866
2.68127
2.68302
2.68636
2.68958
2.69308
2.69604
2.69807
2.69912
2.70011
2.70142
2.70322
2.70549
2.70823
2.71116
2.71387
2.71609
2.71822
2.72002
2.72129
2.72233
2.72337
2.7248
2.72685
2.72983
2.73306
2.73551
2.7372
2.73839
2.73926
2.74005
2.74121
2.743
2.74544
2.74803
2.75045
2.75224
2.75314
2.75362
2.75415
2.75539
2.75771
2.76058
2.76321
2.76491
2.76555
2.76572
2.76599
2.76678
2.7686
2.77112
2.77347
2.77499
2.77556
2.77579
2.77625
2.7773
2.77904
2.78091
2.78218
2.78258
2.78251
2.78271
2.78373
2.78577
2.78807
2.78968
2.79018
2.78983
2.78934
2.78925
2.79001
2.79154
2.79312
2.79418
2.79463
2.79478
2.79516
2.7961
2.79716
2.79771
2.79778
2.79764
2.79782
2.79884
2.80057
2.80272
2.80435
2.80521
2.80589
2.80635
2.80673
2.807
1
1
1
1
1
1
1
1
1
1
1
1
1
1
1
1
1
1
1
1
1
1
1
1
1
1
1
1
1
1
1
1
1
1
1
1
1
1
1
1
1
1
1
1
1
1
1
1
1
1
1
1
1
1
1
1
1
1
1
1
1
1
1
1
1
1
1
1
1
1
1
1
1
1
1
1
1
1
1
1
1
1
1
1
1
1
1
1
1
1
1
1
1
1
1
1
1
1
1.36923
2.49619
2.68278
2.68386
2.68625
2.68886
2.6919
2.6948
2.69724
2.6989
2.70021
2.70165
2.70333
2.70526
2.70755
2.71016
2.71294
2.71552
2.71796
2.7199
2.72112
2.72194
2.72269
2.72393
2.72606
2.72928
2.73278
2.73536
2.73701
2.73796
2.73852
2.73907
2.74019
2.74219
2.74486
2.74762
2.75009
2.75174
2.7524
2.7527
2.75322
2.75472
2.75745
2.76059
2.7632
2.76464
2.7649
2.76481
2.76494
2.76585
2.76805
2.77084
2.77319
2.77446
2.77477
2.7749
2.77541
2.77666
2.77863
2.7806
2.78176
2.78193
2.78178
2.78202
2.78319
2.78535
2.78769
2.78922
2.78962
2.78924
2.78876
2.78871
2.78946
2.79096
2.79253
2.79361
2.7941
2.79433
2.7948
2.7958
2.7968
2.79724
2.79723
2.79703
2.79723
2.79832
2.80013
2.80228
2.80383
2.80457
2.80519
2.80569
2.80624
2.80663
1
1
1
1
1
1
1
1
1
1
1
1
1
1
1
1
1
1
1
1
1
1
1
1
1
1
1
1
1
1
1
1
1
1
1
1
1
1
1
1
1
1
1
1
1
1
1
1
1
1
1
1
1
1
1
1
1
1
1
1
1
1
1
1
1
1
1
1
1
1
1
1
1
1
1
1
1
1
1
1
1
1
1
1
1
1
1
1
1
1
1
1
1
1
1
1
1
1
1.31181
2.47047
2.68415
2.68445
2.68608
2.6882
2.69075
2.69345
2.6961
2.69833
2.70008
2.70173
2.70341
2.70511
2.70703
2.7093
2.71196
2.71472
2.71734
2.71941
2.72068
2.72147
2.72217
2.72334
2.72543
2.72856
2.73204
2.73473
2.73642
2.73732
2.73777
2.73819
2.73924
2.74138
2.7442
2.74709
2.74955
2.75109
2.75161
2.75183
2.75243
2.7543
2.75735
2.76052
2.76289
2.76394
2.76392
2.76371
2.76393
2.76525
2.7678
2.77061
2.77271
2.77361
2.77373
2.77392
2.77465
2.77627
2.77839
2.78021
2.78109
2.78105
2.7809
2.78131
2.78275
2.78505
2.7873
2.78863
2.7889
2.78854
2.78816
2.78819
2.78897
2.79039
2.79189
2.79296
2.79353
2.79387
2.79442
2.7954
2.79627
2.79663
2.79659
2.79641
2.79669
2.79784
2.79967
2.80177
2.80322
2.80389
2.80447
2.80502
2.80571
2.80618
1
1
1
1
1
1
1
1
1
1
1
1
1
1
1
1
1
1
1
1
1
1
1
1
1
1
1
1
1
1
1
1
1
1
1
1
1
1
1
1
1
1
1
1
1
1
1
1
1
1
1
1
1
1
1
1
1
1
1
1
1
1
1
1
1
1
1
1
1
1
1
1
1
1
1
1
1
1
1
1
1
1
1
1
1
1
1
1
1
1
1
1
1
1
1
1
1
1
1.25203
2.4397
2.68451
2.68472
2.68596
2.68781
2.68993
2.69232
2.69488
2.69744
2.69966
2.70161
2.70336
2.70496
2.70663
2.70864
2.71114
2.71392
2.71659
2.71873
2.7201
2.72095
2.72172
2.7229
2.72493
2.72788
2.73124
2.73396
2.73569
2.73661
2.73704
2.73741
2.73843
2.74069
2.74362
2.74655
2.74893
2.75033
2.75075
2.75101
2.75185
2.75417
2.75738
2.76036
2.76229
2.7628
2.76256
2.76241
2.76304
2.76506
2.76793
2.77051
2.77206
2.77241
2.77238
2.77275
2.77398
2.77615
2.77838
2.7798
2.78015
2.77991
2.77983
2.78054
2.78241
2.78489
2.78695
2.78793
2.78798
2.78765
2.78741
2.78762
2.78851
2.78988
2.79125
2.79227
2.79289
2.79335
2.794
2.79491
2.79564
2.79591
2.79589
2.7958
2.79619
2.7974
2.79919
2.80118
2.80253
2.80316
2.80374
2.80435
2.80513
2.80565
1
1
1
1
1
1
1
1
1
1
1
1
1
1
1
1
1
1
1
1
1
1
1
1
1
1
1
1
1
1
1
1
1
1
1
1
1
1
1
1
1
1
1
1
1
1
1
1
1
1
1
1
1
1
1
1
1
1
1
1
1
1
1
1
1
1
1
1
1
1
1
1
1
1
1
1
1
1
1
1
1
1
1
1
1
1
1
1
1
1
1
1
1
1
1
1
1
1
1.18623
2.40047
2.68272
2.68404
2.68565
2.68752
2.68941
2.69151
2.69383
2.69638
2.69891
2.70116
2.70309
2.70472
2.70632
2.70818
2.71048
2.71313
2.7157
2.71785
2.71937
2.72039
2.7213
2.72253
2.72447
2.72717
2.73031
2.73304
2.73486
2.73584
2.73632
2.73672
2.73776
2.74014
2.74313
2.746
2.7482
2.74939
2.74974
2.75014
2.75144
2.7542
2.75746
2.76009
2.7614
2.76132
2.76086
2.76096
2.76229
2.76511
2.76821
2.77039
2.7712
2.771
2.77081
2.77145
2.77342
2.77618
2.77845
2.7794
2.7791
2.77859
2.77858
2.77974
2.78217
2.78482
2.78661
2.78718
2.78694
2.7866
2.78654
2.78702
2.78812
2.78946
2.79065
2.79154
2.79216
2.79273
2.79348
2.79434
2.79494
2.79513
2.79512
2.79516
2.79571
2.79695
2.79868
2.80052
2.80176
2.80239
2.80298
2.80367
2.80452
2.80504
1
1
1
1
1
1
1
1
1
1
1
1
1
1
1
1
1
1
1
1
1
1
1
1
1
1
1
1
1
1
1
1
1
1
1
1
1
1
1
1
1
1
1
1
1
1
1
1
1
1
1
1
1
1
1
1
1
1
1
1
1
1
1
1
1
1
1
1
1
1
1
1
1
1
1
1
1
1
1
1
1
1
1
1
1
1
1
1
1
1
1
1
1
1
1
1
1
1
1.11583
2.35776
2.68058
2.68294
2.68515
2.68724
2.68909
2.69108
2.69323
2.69561
2.6981
2.70044
2.70252
2.70433
2.70603
2.70786
2.70999
2.71242
2.71483
2.71695
2.71864
2.71985
2.72088
2.72213
2.72396
2.72642
2.72936
2.7321
2.73401
2.73508
2.73564
2.73611
2.73727
2.73976
2.74275
2.74549
2.74739
2.74828
2.74858
2.74925
2.75114
2.7543
2.7575
2.75963
2.76022
2.75971
2.7591
2.75956
2.76178
2.76527
2.76842
2.77013
2.77012
2.76948
2.76917
2.77024
2.77303
2.7763
2.77841
2.77876
2.77797
2.77714
2.77725
2.77899
2.78198
2.78476
2.78621
2.7863
2.7858
2.78541
2.78555
2.78643
2.7878
2.78909
2.79005
2.79073
2.7913
2.79197
2.79285
2.79371
2.7942
2.79433
2.79432
2.79449
2.79521
2.79648
2.79815
2.79983
2.80095
2.80157
2.80219
2.80295
2.80386
2.80436
1
1
1
1
1
1
1
1
1
1
1
1
1
1
1
1
1
1
1
1
1
1
1
1
1
1
1
1
1
1
1
1
1
1
1
1
1
1
1
1
1
1
1
1
1
1
1
1
1
1
1
1
1
1
1
1
1
1
1
1
1
1
1
1
1
1
1
1
1
1
1
1
1
1
1
1
1
1
1
1
1
1
1
1
1
1
1
1
1
1
1
1
1
1
1
1
1
1
1.04229
2.31971
2.68083
2.68274
2.68446
2.68662
2.68863
2.69081
2.69308
2.69545
2.69782
2.70004
2.7021
2.70404
2.70586
2.70769
2.70966
2.71186
2.71409
2.71617
2.718
2.71936
2.72046
2.72169
2.72341
2.7257
2.72849
2.73123
2.73321
2.73434
2.735
2.7356
2.73695
2.73953
2.74243
2.74494
2.74652
2.74711
2.74743
2.74847
2.75092
2.75427
2.75723
2.75888
2.75887
2.75811
2.75756
2.75856
2.76156
2.76536
2.76827
2.76943
2.76887
2.7679
2.76769
2.76938
2.77283
2.77624
2.77808
2.77791
2.77673
2.77569
2.77603
2.77836
2.78176
2.78451
2.78562
2.78529
2.78457
2.78416
2.78457
2.78591
2.78753
2.7887
2.78936
2.78983
2.79033
2.79109
2.79215
2.79306
2.79347
2.79353
2.79352
2.79378
2.79464
2.79595
2.79756
2.79909
2.80009
2.80072
2.80137
2.8022
2.80315
2.80362
1
1
1
1
1
1
1
1
1
1
1
1
1
1
1
1
1
1
1
1
1
1
1
1
1
1
1
1
1
1
1
1
1
1
1
1
1
1
1
1
1
1
1
1
1
1
1
1
1
1
1
1
1
1
1
1
1
1
1
1
1
1
1
1
1
1
1
1
1
1
1
1
1
1
1
1
1
1
1
1
1
1
1
1
1
1
1
1
1
1
1
1
1
1
1
1
1
1
1.00144
2.27517
2.68052
2.68314
2.68453
2.68655
2.68858
2.69082
2.69311
2.69545
2.69775
2.69992
2.70194
2.70387
2.70568
2.70744
2.7093
2.71137
2.71353
2.71559
2.71745
2.71889
2.72004
2.72126
2.72294
2.72516
2.72785
2.73051
2.73246
2.73361
2.73437
2.73518
2.73674
2.73932
2.74203
2.74423
2.74549
2.74593
2.74642
2.74788
2.75064
2.7539
2.75648
2.75773
2.75744
2.75667
2.75659
2.75821
2.76152
2.7651
2.76751
2.76815
2.76739
2.7664
2.76667
2.76903
2.77268
2.77582
2.77725
2.77675
2.77538
2.77438
2.77511
2.7779
2.78143
2.78396
2.78471
2.78413
2.78328
2.78296
2.78372
2.78549
2.78723
2.78816
2.78854
2.78884
2.78928
2.79014
2.7914
2.79238
2.79272
2.79271
2.79269
2.79304
2.79397
2.79535
2.79692
2.79829
2.79921
2.79984
2.80053
2.80141
2.80239
2.80281
1
1
1
1
1
1
1
1
1
1
1
1
1
1
1
1
1
1
1
1
1
1
1
1
1
1
1
1
1
1
1
1
1
1
1
1
1
1
1
1
1
1
1
1
1
1
1
1
1
1
1
1
1
1
1
1
1
1
1
1
1
1
1
1
1
1
1
1
1
1
1
1
1
1
1
1
1
1
1
1
1
1
1
1
1
1
1
1
1
1
1
1
1
1
1
1
1
1
1.00001
2.21929
2.67981
2.68331
2.68438
2.68628
2.68845
2.69083
2.69324
2.69566
2.69802
2.70028
2.70233
2.70417
2.70583
2.70742
2.70913
2.71109
2.7132
2.71528
2.71706
2.71836
2.71943
2.72074
2.72258
2.7249
2.72753
2.72999
2.73177
2.73288
2.73378
2.73488
2.73665
2.7391
2.74146
2.74327
2.74429
2.74481
2.7457
2.74758
2.75033
2.75321
2.7553
2.75616
2.7559
2.75551
2.75622
2.75844
2.76155
2.76447
2.7662
2.76634
2.76565
2.76513
2.76619
2.76904
2.7725
2.77508
2.77596
2.77524
2.77397
2.77334
2.77459
2.77762
2.78095
2.78306
2.78345
2.78277
2.78197
2.78191
2.78312
2.78514
2.78677
2.78743
2.78756
2.78773
2.78819
2.78921
2.79065
2.79167
2.79194
2.79187
2.79184
2.79225
2.79324
2.79467
2.79619
2.79744
2.79829
2.79896
2.79968
2.80058
2.80157
2.80192
1
1
1
1
1
1
1
1
1
1
1
1
1
1
1
1
1
1
1
1
1
1
1
1
1
1
1
1
1
1
1
1
1
1
1
1
1
1
1
1
1
1
1
1
1
1
1
1
1
1
1
1
1
1
1
1
1
1
1
1
1
1
1
1
1
1
1
1
1
1
1
1
1
1
1
1
1
1
1
1
1
1
1
1
1
1
1
1
1
1
1
1
1
1
1
1
1
1
1
2.15507
2.67693
2.68288
2.68387
2.68551
2.68777
2.69032
2.69292
2.69551
2.69804
2.70047
2.70262
2.70444
2.70604
2.70762
2.70934
2.71124
2.71324
2.71512
2.71648
2.71745
2.71862
2.72028
2.72248
2.725
2.72756
2.72972
2.73116
2.73217
2.73329
2.73475
2.73669
2.73887
2.74072
2.74204
2.7429
2.74373
2.74524
2.74752
2.75012
2.75238
2.75375
2.75423
2.75416
2.75458
2.75626
2.75894
2.76164
2.76363
2.76447
2.7642
2.76371
2.76411
2.76616
2.76924
2.77222
2.774
2.77427
2.77349
2.77255
2.77263
2.77445
2.77744
2.78025
2.78178
2.78188
2.78126
2.7807
2.7811
2.78277
2.78479
2.78609
2.78643
2.78641
2.78653
2.78711
2.78837
2.78991
2.7909
2.79109
2.79097
2.79096
2.79142
2.79247
2.79391
2.79535
2.79648
2.79732
2.79807
2.79885
2.79974
2.80069
2.80093
1
1
1
1
1
1
1
1
1
1
1
1
1
1
1
1
1
1
1
1
1
1
1
1
1
1
1
1
1
1
1
1
1
1
1
1
1
1
1
1
1
1
1
1
1
1
1
1
1
1
1
1
1
1
1
1
1
1
1
1
1
1
1
1
1
1
1
1
1
1
1
1
1
1
1
1
1
1
1
1
1
1
1
1
1
1
1
1
1
1
1
1
1
1
1
1
1
1
1
2.0831
2.67027
2.68213
2.68252
2.68409
2.68624
2.68891
2.69183
2.69479
2.69763
2.70028
2.70262
2.70455
2.70635
2.70815
2.70997
2.71174
2.71339
2.71479
2.71558
2.71636
2.71796
2.72017
2.72272
2.72537
2.72774
2.72936
2.73033
2.73141
2.73295
2.73483
2.73687
2.73869
2.73994
2.7407
2.74143
2.74271
2.74491
2.74752
2.74991
2.75152
2.75215
2.75224
2.75249
2.75388
2.75647
2.75934
2.76156
2.76261
2.76252
2.76199
2.76186
2.76334
2.76627
2.76939
2.77169
2.77264
2.77236
2.77165
2.77124
2.77214
2.77448
2.77722
2.77931
2.78021
2.7801
2.77965
2.77956
2.78062
2.78259
2.78432
2.78513
2.78518
2.78506
2.78527
2.7861
2.78763
2.7892
2.79005
2.79011
2.78998
2.79004
2.7906
2.7917
2.7931
2.79436
2.79537
2.79627
2.7972
2.79807
2.79888
2.79974
2.79982
1
1
1
1
1
1
1
1
1
1
1
1
1
1
1
1
1
1
1
1
1
1
1
1
1
1
1
1
1
1
1
1
1
1
1
1
1
1
1
1
1
1
1
1
1
1
1
1
1
1
1
1
1
1
1
1
1
1
1
1
1
1
1
1
1
1
1
1
1
1
1
1
1
1
1
1
1
1
1
1
1
1
1
1
1
1
1
1
1
1
1
1
1
1
1
1
1
1
1
2.0035
2.65918
2.68147
2.68102
2.68205
2.68374
2.68635
2.68958
2.69301
2.69633
2.69943
2.70223
2.70455
2.70664
2.70871
2.71061
2.71218
2.71339
2.71428
2.71467
2.71552
2.71756
2.7202
2.72298
2.72561
2.72763
2.72865
2.72948
2.73095
2.73294
2.73516
2.73718
2.73854
2.73907
2.73929
2.74002
2.74187
2.7446
2.74741
2.74958
2.75064
2.75072
2.75059
2.75118
2.75341
2.75655
2.75939
2.76106
2.76137
2.76076
2.76005
2.76045
2.76291
2.76631
2.76925
2.77083
2.77103
2.77048
2.76988
2.77011
2.77185
2.77446
2.77679
2.7781
2.77842
2.77824
2.77804
2.77865
2.78042
2.78243
2.78364
2.7839
2.78371
2.78358
2.78401
2.78521
2.787
2.78846
2.78906
2.78899
2.78888
2.7891
2.7898
2.79096
2.7922
2.79321
2.79413
2.79514
2.79632
2.79731
2.798
2.79871
2.79861
1
1
1
1
1
1
1
1
1
1
1
1
1
1
1
1
1
1
1
1
1
1
1
1
1
1
1
1
1
1
1
1
1
1
1
1
1
1
1
1
1
1
1
1
1
1
1
1
1
1
1
1
1
1
1
1
1
1
1
1
1
1
1
1
1
1
1
1
1
1
1
1
1
1
1
1
1
1
1
1
1
1
1
1
1
1
1
1
1
1
1
1
1
1
1
1
1
1
1
1.91562
2.64281
2.68067
2.6799
2.68053
2.68134
2.68334
2.68649
2.69021
2.69403
2.69768
2.70105
2.70395
2.70653
2.70887
2.71082
2.71225
2.71318
2.71375
2.71408
2.71503
2.71718
2.71995
2.72275
2.72525
2.72699
2.72785
2.72905
2.73096
2.73316
2.73539
2.73713
2.7379
2.73786
2.73799
2.73916
2.74148
2.74436
2.74705
2.7489
2.74954
2.7494
2.74943
2.75052
2.75304
2.7561
2.75871
2.76003
2.75996
2.75921
2.75861
2.75967
2.76262
2.76596
2.76849
2.76957
2.76937
2.76873
2.76835
2.76923
2.77159
2.77421
2.77601
2.77665
2.77658
2.77638
2.77658
2.77805
2.78031
2.78207
2.78271
2.78248
2.78205
2.78203
2.78281
2.78445
2.78641
2.78765
2.7879
2.78774
2.78768
2.78813
2.78906
2.79023
2.79121
2.79193
2.79277
2.79392
2.79538
2.79654
2.79712
2.79763
2.7973
1
1
1
1
1
1
1
1
1
1
1
1
1
1
1
1
1
1
1
1
1
1
1
1
1
1
1
1
1
1
1
1
1
1
1
1
1
1
1
1
1
1
1
1
1
1
1
1
1
1
1
1
1
1
1
1
1
1
1
1
1
1
1
1
1
1
1
1
1
1
1
1
1
1
1
1
1
1
1
1
1
1
1
1
1
1
1
1
1
1
1
1
1
1
1
1
1
1
1
1.82011
2.62162
2.67956
2.67895
2.67951
2.67961
2.68079
2.68337
2.68702
2.69107
2.69514
2.69898
2.70244
2.70551
2.70824
2.71042
2.71187
2.71268
2.71315
2.71351
2.7145
2.71646
2.71901
2.72167
2.72414
2.72609
2.72746
2.72921
2.73132
2.73333
2.73517
2.73638
2.73666
2.73662
2.73729
2.73903
2.74146
2.74405
2.74626
2.74767
2.74818
2.74838
2.749
2.75052
2.75288
2.75544
2.75748
2.75848
2.75842
2.75788
2.75787
2.7595
2.76237
2.76523
2.7672
2.76791
2.76766
2.76716
2.76717
2.76864
2.77122
2.77357
2.7748
2.77496
2.77473
2.77463
2.77543
2.77766
2.78007
2.78142
2.7815
2.78088
2.78028
2.7805
2.78175
2.7838
2.78576
2.78669
2.78659
2.78634
2.78642
2.78715
2.78836
2.78946
2.7901
2.79055
2.7913
2.79262
2.79438
2.79571
2.79623
2.79648
2.79593
1
1
1
1
1
1
1
1
1
1
1
1
1
1
1
1
1
1
1
1
1
1
1
1
1
1
1
1
1
1
1
1
1
1
1
1
1
1
1
1
1
1
1
1
1
1
1
1
1
1
1
1
1
1
1
1
1
1
1
1
1
1
1
1
1
1
1
1
1
1
1
1
1
1
1
1
1
1
1
1
1
1
1
1
1
1
1
1
1
1
1
1
1
1
1
1
1
1
1
1.71751
2.59602
2.67781
2.67757
2.67847
2.67848
2.67931
2.68124
2.68427
2.6879
2.69186
2.69583
2.6997
2.70321
2.70632
2.70893
2.71077
2.71184
2.71244
2.71294
2.71377
2.7152
2.7172
2.7197
2.72247
2.72509
2.72733
2.72963
2.73167
2.73319
2.73432
2.735
2.73526
2.7358
2.73722
2.73923
2.74142
2.7434
2.74499
2.74611
2.74692
2.74792
2.74925
2.75088
2.75273
2.75445
2.75575
2.75649
2.7567
2.75684
2.75778
2.75972
2.76207
2.76416
2.76551
2.76599
2.76593
2.7658
2.76638
2.76829
2.77074
2.77256
2.77324
2.77313
2.77289
2.77312
2.77465
2.77736
2.7796
2.78043
2.78006
2.77912
2.77855
2.77907
2.78082
2.78321
2.78497
2.7855
2.78516
2.78484
2.78514
2.78618
2.78764
2.78861
2.7889
2.78911
2.78975
2.79125
2.79327
2.79478
2.79527
2.79528
2.79454
1
1
1
1
1
1
1
1
1
1
1
1
1
1
1
1
1
1
1
1
1
1
1
1
1
1
1
1
1
1
1
1
1
1
1
1
1
1
1
1
1
1
1
1
1
1
1
1
1
1
1
1
1
1
1
1
1
1
1
1
1
1
1
1
1
1
1
1
1
1
1
1
1
1
1
1
1
1
1
1
1
1
1
1
1
1
1
1
1
1
1
1
1
1
1
1
1
1
1
1.60382
2.56288
2.67416
2.67539
2.6768
2.6774
2.67846
2.68005
2.68248
2.68534
2.68857
2.69213
2.69596
2.69976
2.70331
2.7065
2.70903
2.71059
2.71141
2.71192
2.71246
2.71328
2.71473
2.71711
2.72035
2.72388
2.72712
2.72989
2.73174
2.73271
2.73319
2.73357
2.73403
2.73524
2.73718
2.73923
2.74103
2.74244
2.74361
2.74472
2.74608
2.74784
2.74961
2.75115
2.7523
2.75308
2.75373
2.75438
2.75511
2.75635
2.7581
2.75997
2.76162
2.76283
2.76353
2.76389
2.76419
2.76465
2.76593
2.76803
2.77004
2.77121
2.77139
2.77118
2.77115
2.77194
2.77419
2.77701
2.77883
2.7791
2.77836
2.77727
2.77692
2.77782
2.78001
2.78253
2.78398
2.78408
2.78361
2.7833
2.78385
2.78523
2.78683
2.78762
2.78763
2.78762
2.78819
2.78983
2.79204
2.79369
2.7942
2.79403
2.79323
1
1
1
1
1
1
1
1
1
1
1
1
1
1
1
1
1
1
1
1
1
1
1
1
1
1
1
1
1
1
1
1
1
1
1
1
1
1
1
1
1
1
1
1
1
1
1
1
1
1
1
1
1
1
1
1
1
1
1
1
1
1
1
1
1
1
1
1
1
1
1
1
1
1
1
1
1
1
1
1
1
1
1
1
1
1
1
1
1
1
1
1
1
1
1
1
1
1
1
1.47323
2.51836
2.6699
2.67193
2.67432
2.67582
2.6774
2.67908
2.68113
2.68334
2.68582
2.68867
2.69195
2.69564
2.69959
2.70346
2.70672
2.70879
2.70983
2.71035
2.71061
2.71098
2.71201
2.71434
2.71796
2.72227
2.72635
2.72946
2.73123
2.73193
2.73214
2.73237
2.73297
2.7345
2.7366
2.73858
2.74016
2.74141
2.74259
2.74392
2.74569
2.74776
2.74961
2.75085
2.7513
2.75147
2.7518
2.75259
2.75405
2.75621
2.75837
2.76001
2.76095
2.76132
2.7615
2.76183
2.76247
2.76371
2.76566
2.76772
2.76912
2.76959
2.76943
2.7692
2.76958
2.77112
2.77387
2.77645
2.77772
2.7775
2.77645
2.77542
2.77543
2.77679
2.77929
2.78164
2.78271
2.78249
2.78196
2.78178
2.78262
2.78429
2.78586
2.78645
2.78627
2.7861
2.78665
2.78838
2.79068
2.79241
2.79297
2.79271
2.792
1
1
1
1
1
1
1
1
1
1
1
1
1
1
1
1
1
1
1
1
1
1
1
1
1
1
1
1
1
1
1
1
1
1
1
1
1
1
1
1
1
1
1
1
1
1
1
1
1
1
1
1
1
1
1
1
1
1
1
1
1
1
1
1
1
1
1
1
1
1
1
1
1
1
1
1
1
1
1
1
1
1
1
1
1
1
1
1
1
1
1
1
1
1
1
1
1
1
1
1.33022
2.46409
2.67
2.66966
2.67203
2.67423
2.67641
2.67847
2.6804
2.6819
2.68363
2.68581
2.68853
2.69182
2.6957
2.69992
2.70381
2.70637
2.70766
2.70828
2.70847
2.70866
2.70951
2.71175
2.7154
2.71997
2.72452
2.72796
2.7299
2.73077
2.73111
2.73141
2.73203
2.7334
2.73523
2.73708
2.7388
2.74038
2.742
2.74372
2.74561
2.7475
2.74898
2.74978
2.7499
2.74993
2.75034
2.7515
2.75355
2.7561
2.75834
2.75968
2.76001
2.75976
2.7595
2.75979
2.7609
2.763
2.76539
2.76719
2.76796
2.76779
2.76739
2.76734
2.76825
2.77056
2.77351
2.77562
2.77624
2.77564
2.77444
2.77365
2.77411
2.77593
2.77853
2.7805
2.78113
2.78076
2.78025
2.78031
2.78145
2.7833
2.78471
2.78508
2.78482
2.78458
2.78515
2.78689
2.78918
2.79093
2.79156
2.79134
2.79088
1
1
1
1
1
1
1
1
1
1
1
1
1
1
1
1
1
1
1
1
1
1
1
1
1
1
1
1
1
1
1
1
1
1
1
1
1
1
1
1
1
1
1
1
1
1
1
1
1
1
1
1
1
1
1
1
1
1
1
1
1
1
1
1
1
1
1
1
1
1
1
1
1
1
1
1
1
1
1
1
1
1
1
1
1
1
1
1
1
1
1
1
1
1
1
1
1
1
1
1.19308
2.40332
2.67033
2.67001
2.67163
2.67364
2.67589
2.67805
2.67982
2.68113
2.68235
2.68386
2.68603
2.68895