/*--------------------------------*- C++ -*----------------------------------*\
  =========                 |
  \\      /  F ield         | OpenFOAM: The Open Source CFD Toolbox
   \\    /   O peration     | Website:  https://openfoam.org
    \\  /    A nd           | Version:  7
     \\/     M anipulation  |
\*---------------------------------------------------------------------------*/
FoamFile
{
    version     2.0;
    format      ascii;
    class       volScalarField;
    location    "1.8";
    object      T;
}
// * * * * * * * * * * * * * * * * * * * * * * * * * * * * * * * * * * * * * //

dimensions      [0 0 0 1 0 0 0];

internalField   nonuniform List<scalar> 
4032
(
1
1
1
1
1
1
1
1
1
1
1
1
1.99932
2.71606
2.74164
2.75504
2.77467
2.7964
2.81445
2.82369
2.82797
2.83663
2.85143
2.86182
1
1
1
1
1
1
1
1
1
1
1
1
1.97728
2.70987
2.74029
2.75379
2.77313
2.79443
2.81185
2.8205
2.82431
2.83271
2.84715
2.85718
1
1
1
1
1
1
1
1
1
1
1
1
1.92005
2.69825
2.73603
2.74943
2.76874
2.79
2.80708
2.81535
2.81885
2.82717
2.84121
2.85085
1
1
1
1
1
1
1
1
1
1
1
1
1.82747
2.67398
2.72703
2.74054
2.76018
2.78196
2.7995
2.80803
2.81162
2.81933
2.83167
2.83977
1
1
1
1
1
1
1
1
1
1
1
1
1.7018
2.63322
2.71407
2.72764
2.74754
2.76988
2.78819
2.79694
2.8002
2.80655
2.81628
2.82407
1
1
1
1
1
1
1
1
1
1
1
1
1.52839
2.56235
2.69759
2.71123
2.73103
2.75324
2.77279
2.78326
2.78784
2.79338
2.79844
2.7972
1
1
1
1
1
1
1
1
1
1
1
1
1.28025
2.45076
2.68144
2.69155
2.70961
2.73009
2.75036
2.76253
2.76579
2.76419
2.76353
2.76163
1
1
1
1
1
1
1
1
1
1
1
1
1.02354
2.32553
2.68015
2.6807
2.69003
2.70472
2.72132
2.73341
2.73548
2.73365
2.73581
2.75384
1
1
1
1
1
1
1
1
1
1
1
1
1.00016
2.16101
2.65491
2.65801
2.66542
2.67699
2.68822
2.69805
2.69638
2.68381
2.6398
2.54486
1
1
1
1
1
1
1
1
1
1
1
1
0.999999
1.91286
2.60717
2.6438
2.64937
2.65524
2.65868
2.66151
2.65352
2.62516
2.56956
2.41435
1
1
1
1
1
1
1
1
1
1
1
1
1
1.5274
2.48233
2.62304
2.62815
2.63096
2.62985
2.62513
2.61104
2.57413
2.50986
2.33316
1
1
1
1
1
1
1
1
1
1
1
1
1
1.07687
2.30217
2.60432
2.59924
2.59997
2.59726
2.58874
2.57079
2.5338
2.45827
2.30679
1
1
1
1
1
1
1
1
1
1
1
1
1
1.00139
2.0807
2.54691
2.55777
2.56112
2.5596
2.55085
2.53289
2.49716
2.42222
2.30505
1
1
1
1
1
1
1
1
1
1
1
1
1
0.999993
1.6138
2.42737
2.53531
2.5341
2.52956
2.51788
2.49892
2.46188
2.39552
2.30539
1
1
1
1
1
1
1
1
1
1
1
1
1
0.999998
1.0964
2.22959
2.51027
2.50613
2.50035
2.48591
2.46434
2.42774
2.37226
2.30166
1
1
1
1
1
1
1
1
1
1
1
1
1
1
1.00194
1.90197
2.43028
2.47831
2.47122
2.45682
2.43254
2.39802
2.35177
2.29433
1
1
1
1
1
1
1
1
1
1
1
1
1
1
0.999995
1.27172
2.26173
2.45635
2.44162
2.42839
2.40466
2.37155
2.33043
2.28109
1
1
1
1
1
1
1
1
1
1
1
1
1
1
0.999999
1.01613
2.02633
2.39785
2.40176
2.39346
2.37571
2.34684
2.30966
2.2663
1
1
1
1
1
1
1
1
1
1
1
1
1
1
1
1.00003
1.41865
2.24212
2.38534
2.36356
2.34589
2.32144
2.28994
2.2526
1
1
1
1
1
1
1
1
1
1
1
1
1
1
1
1
1.04106
2.01901
2.34519
2.32995
2.31359
2.29331
2.26745
2.23619
1
1
1
1
1
1
1
1
1
1
1
1
1
1
1
1
1.00032
1.41253
2.17514
2.31282
2.29024
2.26947
2.24543
2.21847
1
1
1
1
1
1
1
1
1
1
1
1
1
1
1
1
1
1.04134
1.91837
2.27561
2.26411
2.24308
2.2209
2.19747
1
1
1
1
1
1
1
1
1
1
1
1
1
1
1
1
1
1.00039
1.32929
2.08665
2.24356
2.21846
2.2004
2.1794
1
1
1
1
1
1
1
1
1
1
1
1
1
1
1
1
1
1
1.02451
1.70015
2.15594
2.20015
2.18231
2.16211
1
1
1
1
1
1
1
1
1
1
1
1
1
1
1
1
1
1
1.00022
1.16755
1.91893
2.17743
2.16108
2.14396
1
1
1
1
1
1
1
1
1
1
1
1
1
1
1
1
1
1
1
1.00616
1.41404
2.01272
2.1405
2.12033
1
1
1
1
1
1
1
1
1
1
1
1
1
1
1
1
1
1
1
1.00004
1.04595
1.65984
2.0432
2.10841
1
1
1
1
1
1
1
1
1
1
1
1
1
1
1
1
1
1
1
1
1.00072
1.16183
1.79829
2.06719
1
1
1
1
1
1
1
1
1
1
1
1
1
1
1
1
1
1
1
1
1
1.00624
1.31625
1.87861
1
1
1
1
1
1
1
1
1
1
1
1
1
1
1
1
1
1
1
1
1
1.00005
1.02658
1.46241
1
1
1
1
1
1
1
1
1
1
1
1
1
1
1
1
1
1
1
1
1
1
1.00035
1.06968
1
1
1
1
1
1
1
1
1
1
1
1
1
1
1
1
1
1
1
1
1
1
1
1.00158
1
1
1
1
1
1
1
1
1
1
1
1
1
1
1
1
1
1
1
1
1
1
1
1.00001
1
1
1
1
1
1
1
1
1
1
1
1
1
1
1
1
1
1
1
1
1
1
1
1
1
1
1
1
1
1
1
1
1
1
1
1
1
1
1
1
1
1
1
1
1
1
1
1
1
1
1
1
1
1
1
1
1
1
1
1
1
1
1
1
1
1
1
1
1
1
1
1
1
1
1
1
1
1
1
1
1
1
1
1
1
1
1
1
1
1
1
1
1
1
1
1
1
1
1
1
1
1
1
1
1
1
1
1
1
1
1
1
1
1
1
1
1
1
1
1
1
1
1
1
1
1
1
1
1
1
1
1
1
1
1
1
1
1
1
1
1
1
1
1
1
1
1
1
1
1
1
1
1
1
1
1
1
1
1
1
1
1
1
1
1
1
1
1
1.72628
1.24532
0.983308
1.02709
1.24201
1.3436
1.37676
1.41677
1.4648
1.53315
1.64074
1.72269
1.72769
1.73395
1.7485
1.77394
1.77534
1.75517
1.73741
1.74171
1.75789
1.7659
1.76318
1.75112
1.73093
1.72102
1.72308
1.73913
1.75724
1.75916
1.75578
1.74312
1.72586
1.715
1.71349
1.71467
1.71675
1.71789
1.71765
1.71627
1.71031
1.70064
1.69815
1.7173
1.83766
2.06115
2.31938
2.50882
2.6338
2.68107
2.66289
2.60237
2.53849
2.50758
2.48532
2.46966
2.45603
2.44378
2.43173
2.41805
2.40132
2.38367
2.36959
2.3595
2.35273
2.34695
2.3412
2.33297
2.31999
2.30375
2.28161
2.25547
2.236
2.22229
2.20965
2.1981
2.18992
2.18218
2.17258
2.16231
2.14892
2.12544
2.09425
2.07163
2.06051
2.05344
2.04881
2.04846
2.05373
2.05373
2.05366
2.05216
2.04098
2.00983
1.98715
1.9765
1.97283
1.6863
1.46044
1.33882
1.36921
1.37063
1.3187
1.27903
1.29775
1.32962
1.37624
1.43704
1.49788
1.53261
1.5642
1.60377
1.63264
1.64263
1.65106
1.66482
1.68642
1.70627
1.7083
1.70225
1.68854
1.68098
1.68279
1.6966
1.71526
1.71946
1.71784
1.70958
1.69688
1.68907
1.68765
1.68827
1.69081
1.69239
1.69222
1.68962
1.68045
1.6856
1.71611
1.82877
2.00187
2.06194
2.10452
2.20506
2.32933
2.41701
2.47318
2.48875
2.47694
2.46521
2.45045
2.43513
2.42163
2.41072
2.40101
2.39011
2.37732
2.36148
2.34553
2.33437
2.32644
2.32078
2.31473
2.30848
2.29928
2.2854
2.2689
2.25037
2.23057
2.21121
2.19456
2.18203
2.17156
2.16221
2.15483
2.14705
2.13594
2.1195
2.09891
2.07591
2.05706
2.04709
2.04114
2.03797
2.03694
2.03665
2.03662
2.03542
2.02887
2.01246
1.99173
1.97255
2.05072
1.85335
1.7153
1.55133
1.45588
1.41539
1.36448
1.28937
1.28176
1.28546
1.28419
1.30333
1.34322
1.36712
1.38707
1.41912
1.45429
1.49067
1.52915
1.55775
1.58306
1.60741
1.62109
1.62157
1.61983
1.61502
1.61457
1.62269
1.63416
1.63855
1.63861
1.63626
1.63141
1.62744
1.62728
1.62908
1.63327
1.63586
1.63586
1.63413
1.64447
1.70166
1.83189
1.97093
2.03504
2.02259
1.99556
1.98051
2.02099
2.11819
2.2255
2.31889
2.36245
2.39376
2.38735
2.37113
2.35586
2.34264
2.33114
2.32147
2.31356
2.3049
2.29481
2.28554
2.27569
2.26628
2.25879
2.2509
2.24025
2.22824
2.2175
2.2073
2.19568
2.18208
2.16522
2.14619
2.13186
2.12279
2.11404
2.10365
2.0932
2.08511
2.07677
2.06697
2.05083
2.02978
2.01611
2.00872
2.00368
2.00048
1.99783
1.99466
1.99021
1.98541
1.97919
1.96329
2.11482
1.94568
1.83711
1.72179
1.58848
1.52302
1.48576
1.41219
1.36904
1.35067
1.32224
1.29471
1.2892
1.28729
1.29218
1.30711
1.33387
1.37206
1.42077
1.454
1.47005
1.4907
1.51166
1.5267
1.54299
1.5548
1.56052
1.56911
1.5737
1.57272
1.56951
1.56552
1.56322
1.56092
1.55989
1.56067
1.56332
1.56559
1.57069
1.5855
1.65336
1.82441
1.94267
2.00158
1.99746
1.97988
1.94813
1.92434
1.9081
1.91726
1.96451
2.07257
2.17945
2.26044
2.28141
2.29167
2.28858
2.28165
2.27531
2.26851
2.25789
2.24701
2.23548
2.22532
2.21426
2.20153
2.18763
2.17743
2.16901
2.16043
2.152
2.14443
2.13735
2.12994
2.11912
2.10149
2.08152
2.06833
2.0583
2.04887
2.0423
2.03776
2.03435
2.02956
2.02153
2.00672
1.98467
1.96659
1.95725
1.951
1.94467
1.9403
1.93964
1.93957
1.9389
1.93014
2.16454
2.02522
1.91556
1.82244
1.70914
1.62514
1.58091
1.5309
1.4685
1.41956
1.38244
1.34135
1.31635
1.30486
1.29379
1.29729
1.30223
1.3097
1.33132
1.36164
1.38244
1.40622
1.4366
1.45916
1.47779
1.49718
1.50812
1.51876
1.52645
1.52907
1.52811
1.52757
1.52682
1.52576
1.523
1.51951
1.52034
1.52602
1.54743
1.62793
1.80494
1.93808
1.96707
1.97145
1.96522
1.94764
1.93106
1.91013
1.89292
1.8858
1.88317
1.8984
1.95766
2.06013
2.14786
2.20621
2.22395
2.21877
2.22005
2.22186
2.22047
2.21211
2.2005
2.18533
2.16919
2.15314
2.13239
2.11457
2.10594
2.09896
2.09422
2.08892
2.08446
2.08024
2.07358
2.0606
2.03805
2.01643
2.00663
2.00138
1.99684
1.99333
1.9906
1.9864
1.98105
1.97305
1.95677
1.93085
1.90917
1.89777
1.89217
1.89072
1.89062
1.89175
1.89233
1.88477
2.20036
2.09039
1.98611
1.89719
1.80614
1.71929
1.65656
1.60628
1.5578
1.50872
1.46227
1.42396
1.39021
1.36738
1.34526
1.33443
1.32356
1.31307
1.30713
1.30959
1.31334
1.3213
1.34698
1.38373
1.415
1.44728
1.4705
1.48491
1.49279
1.4964
1.49731
1.49856
1.50344
1.50822
1.50793
1.50465
1.50804
1.54603
1.65641
1.80947
1.945
1.95518
1.95825
1.9597
1.95167
1.93274
1.91802
1.90286
1.88526
1.87358
1.86681
1.86083
1.86159
1.88142
1.94114
2.02857
2.10766
2.14503
2.16257
2.1738
2.17389
2.17754
2.1773
2.1651
2.14848
2.12809
2.10554
2.08188
2.06422
2.05493
2.04903
2.04622
2.04377
2.0413
2.03757
2.02964
2.01259
1.98764
1.97315
1.96747
1.96236
1.95747
1.95424
1.95124
1.94621
1.93892
1.92603
1.90445
1.87848
1.86132
1.85468
1.85108
1.84838
1.84732
1.84807
1.83989
2.21815
2.13251
2.04214
1.95464
1.87852
1.79992
1.72971
1.67273
1.62449
1.58186
1.53427
1.49098
1.45915
1.43019
1.40332
1.37973
1.35586
1.33435
1.31248
1.30897
1.30741
1.30753
1.31149
1.32232
1.34135
1.37107
1.40706
1.43267
1.45133
1.46542
1.4704
1.47635
1.48516
1.48967
1.49219
1.49914
1.54938
1.71888
1.84826
1.94031
1.9706
1.96573
1.96268
1.95229
1.93989
1.92402
1.90912
1.89606
1.88154
1.86545
1.85575
1.84999
1.84341
1.8398
1.83835
1.85368
1.90037
1.96646
2.0336
2.08109
2.10531
2.12739
2.13174
2.13164
2.12483
2.11082
2.09053
2.06883
2.04593
2.02775
2.01881
2.01306
2.00928
2.00699
2.00548
2.00285
1.99394
1.97548
1.95524
1.94475
1.93899
1.93331
1.92705
1.92042
1.91346
1.90538
1.89488
1.87972
1.86128
1.84433
1.83222
1.82449
1.81933
1.81524
1.81419
1.80673
2.22709
2.15732
2.08097
2.00202
1.93281
1.8652
1.79815
1.73917
1.68802
1.63996
1.59941
1.55782
1.52139
1.48762
1.45867
1.43708
1.4137
1.38978
1.36326
1.34881
1.33613
1.32135
1.31405
1.31577
1.31429
1.31522
1.3234
1.34168
1.36906
1.40225
1.43206
1.45095
1.46637
1.46893
1.48255
1.55618
1.74501
1.90022
1.94826
1.97158
1.97058
1.96108
1.94845
1.93459
1.92441
1.91528
1.90272
1.88921
1.87233
1.85124
1.83919
1.83517
1.83121
1.82308
1.81488
1.80633
1.79762
1.79647
1.82219
1.88121
1.95269
2.01251
2.04419
2.06762
2.07327
2.06976
2.06494
2.05551
2.03798
2.01765
1.99955
1.9899
1.98397
1.9791
1.97616
1.97421
1.97046
1.96091
1.94538
1.92922
1.91843
1.9112
1.9044
1.89672
1.8878
1.87761
1.86659
1.8554
1.84368
1.83164
1.82004
1.80879
1.79878
1.79015
1.78254
1.76888
2.22518
2.16598
2.09952
2.03643
1.97474
1.91011
1.84642
1.79634
1.74443
1.69329
1.64868
1.61465
1.57536
1.54038
1.50915
1.48617
1.46075
1.43317
1.40918
1.39123
1.37315
1.35368
1.33347
1.32586
1.31846
1.31022
1.30767
1.30888
1.31262
1.32511
1.35361
1.38984
1.42002
1.44962
1.55329
1.75232
1.9245
1.95442
1.97288
1.96979
1.96029
1.94519
1.92984
1.91689
1.90981
1.90307
1.89152
1.87779
1.86019
1.83688
1.81916
1.81234
1.80913
1.80248
1.79128
1.77917
1.76759
1.75934
1.74418
1.73283
1.7526
1.80118
1.86864
1.92957
1.97331
1.99381
2.01213
2.01227
2.00925
2.00148
1.98714
1.97435
1.96421
1.95566
1.94943
1.94407
1.93962
1.93472
1.9276
1.91726
1.90313
1.889
1.87919
1.87152
1.86294
1.85314
1.84291
1.83301
1.82372
1.81479
1.80561
1.79532
1.78372
1.77042
1.7573
1.73947
2.21936
2.1668
2.11111
2.05766
2.00208
1.9421
1.8884
1.83899
1.78899
1.73803
1.69783
1.66112
1.62313
1.58565
1.55689
1.53289
1.50717
1.48047
1.45411
1.436
1.41551
1.3964
1.37727
1.36388
1.3492
1.33011
1.3159
1.31197
1.30802
1.30435
1.30816
1.32332
1.35102
1.49067
1.70909
1.86923
1.93359
1.94196
1.93991
1.93202
1.91693
1.9078
1.90025
1.89541
1.89023
1.88412
1.87466
1.86083
1.84335
1.82427
1.80305
1.78782
1.77933
1.77267
1.76294
1.75243
1.7428
1.73319
1.72158
1.7061
1.68339
1.6703
1.68211
1.71664
1.77753
1.83845
1.9013
1.93173
1.94809
1.95167
1.94981
1.94781
1.94378
1.93526
1.92592
1.91743
1.90854
1.90219
1.89747
1.89153
1.88308
1.86937
1.85309
1.84292
1.83538
1.8277
1.81972
1.81173
1.80354
1.7946
1.78534
1.77592
1.76542
1.75202
1.73633
1.71504
2.21142
2.16413
2.11623
2.06908
2.01785
1.96325
1.91761
1.8709
1.82402
1.77533
1.73818
1.69934
1.66294
1.62795
1.60018
1.57267
1.54426
1.51749
1.49533
1.47613
1.45594
1.43258
1.41028
1.39321
1.37436
1.35559
1.33575
1.32503
1.31472
1.30495
1.30625
1.32339
1.43658
1.66741
1.79128
1.8359
1.86605
1.867
1.86515
1.85551
1.8525
1.85457
1.8542
1.85087
1.84765
1.84896
1.84604
1.83398
1.8222
1.80902
1.79146
1.76923
1.75015
1.73936
1.73168
1.72637
1.72012
1.71027
1.6982
1.68405
1.66578
1.64351
1.62675
1.61594
1.62246
1.64826
1.69942
1.76497
1.8264
1.85708
1.87408
1.88952
1.89522
1.89616
1.8955
1.892
1.88416
1.87434
1.86411
1.85622
1.84959
1.84039
1.82729
1.81287
1.80339
1.79786
1.79288
1.78775
1.78176
1.77379
1.76264
1.75044
1.73964
1.72775
1.71357
1.69373
2.20002
2.1582
2.1162
2.0745
2.02703
1.98054
1.93914
1.89606
1.8486
1.80784
1.77256
1.73468
1.69708
1.66286
1.63883
1.60957
1.58226
1.55223
1.53003
1.50902
1.48775
1.46838
1.4488
1.42996
1.4099
1.38806
1.3682
1.3537
1.34044
1.33146
1.34649
1.45133
1.67464
1.78912
1.8078
1.80025
1.79537
1.79179
1.78515
1.77705
1.76542
1.76109
1.76602
1.77558
1.78401
1.78907
1.79086
1.7941
1.79096
1.78235
1.76995
1.74905
1.72621
1.71122
1.70296
1.69637
1.69202
1.68193
1.67114
1.66036
1.64668
1.62921
1.6089
1.5919
1.58208
1.57597
1.57731
1.5909
1.62579
1.67855
1.72907
1.77296
1.7993
1.82326
1.83903
1.84537
1.84656
1.84367
1.83431
1.82339
1.81268
1.80454
1.79584
1.78524
1.77323
1.76542
1.7614
1.75838
1.75432
1.74889
1.74031
1.72674
1.71105
1.69701
1.68656
1.67249
2.18703
2.15052
2.11399
2.07589
2.03227
1.99204
1.95358
1.91285
1.86803
1.83456
1.79897
1.76354
1.72441
1.6966
1.6703
1.64031
1.61162
1.58397
1.56412
1.54082
1.51686
1.49212
1.47654
1.45769
1.43777
1.4182
1.39868
1.38212
1.36695
1.38135
1.49746
1.71432
1.83761
1.83134
1.81478
1.79405
1.77832
1.76251
1.74794
1.73555
1.72179
1.70198
1.68514
1.68263
1.68767
1.69654
1.71063
1.72397
1.7339
1.73527
1.73007
1.71719
1.7025
1.68846
1.6792
1.66867
1.65693
1.64865
1.64268
1.63648
1.62573
1.60965
1.59318
1.57603
1.56159
1.5533
1.5463
1.53974
1.53477
1.53696
1.55127
1.58509
1.63529
1.68505
1.72594
1.75805
1.78351
1.79158
1.79107
1.78491
1.77285
1.76739
1.76295
1.7563
1.7473
1.7386
1.73097
1.72681
1.72334
1.71908
1.71295
1.70179
1.68439
1.67014
1.66321
1.65202
2.17088
2.14005
2.10814
2.07377
2.03559
1.99998
1.96487
1.9245
1.88545
1.85509
1.82194
1.78694
1.74989
1.72506
1.69594
1.66808
1.63738
1.61355
1.59171
1.56702
1.54321
1.52013
1.50275
1.48274
1.46191
1.43999
1.42386
1.41281
1.43651
1.57344
1.78018
1.89183
1.88181
1.84723
1.81616
1.79068
1.77212
1.75357
1.7363
1.72214
1.7094
1.69454
1.67377
1.6524
1.63585
1.62508
1.62489
1.62952
1.63744
1.64987
1.65659
1.66079
1.66004
1.6549
1.64218
1.63143
1.62233
1.61837
1.61677
1.61123
1.59868
1.5851
1.57252
1.55834
1.5454
1.5358
1.52529
1.51751
1.5111
1.50406
1.49526
1.48478
1.48978
1.51007
1.55378
1.60272
1.65078
1.68556
1.71682
1.73114
1.73008
1.72126
1.71642
1.71724
1.71845
1.71434
1.70558
1.6979
1.693
1.68908
1.68315
1.67397
1.66112
1.64731
1.63975
1.62985
2.15578
2.12903
2.10038
2.0692
2.03541
2.00392
1.97177
1.93322
1.89915
1.8702
1.84051
1.80403
1.7731
1.74772
1.7184
1.68985
1.65922
1.64011
1.616
1.59107
1.56457
1.5433
1.5268
1.50498
1.48392
1.46392
1.45064
1.48476
1.64418
1.84199
1.93932
1.93164
1.8962
1.85711
1.82573
1.80232
1.78302
1.76259
1.74179
1.72287
1.70592
1.68853
1.66751
1.64308
1.62203
1.6089
1.59865
1.58822
1.58079
1.57779
1.57377
1.57732
1.58142
1.58098
1.58036
1.58276
1.58118
1.57587
1.57214
1.56908
1.56585
1.55965
1.55088
1.53928
1.5263
1.51319
1.50397
1.49923
1.49447
1.48645
1.47473
1.46514
1.45608
1.44374
1.43959
1.44757
1.47288
1.51247
1.55922
1.6029
1.64559
1.66558
1.66266
1.66561
1.67145
1.67425
1.6719
1.66628
1.66405
1.66088
1.65508
1.64806
1.63984
1.6286
1.61714
1.60452
2.13967
2.11592
2.08987
2.06115
2.03183
2.00319
1.97319
1.93967
1.90915
1.88127
1.85177
1.81687
1.79069
1.76551
1.73919
1.70625
1.6797
1.66048
1.6356
1.61167
1.58415
1.56643
1.54737
1.5233
1.50267
1.49234
1.53767
1.72185
1.90199
1.97573
1.96824
1.9387
1.89845
1.86309
1.83365
1.81029
1.78968
1.76909
1.74831
1.72853
1.70978
1.69129
1.67124
1.64536
1.6192
1.59965
1.58313
1.56992
1.56003
1.55211
1.54428
1.53629
1.52682
1.51298
1.50306
1.50275
1.50588
1.5088
1.51188
1.51828
1.51899
1.51685
1.50925
1.50116
1.49204
1.48388
1.4803
1.4797
1.47604
1.46601
1.45612
1.44873
1.44007
1.42872
1.41505
1.39975
1.3915
1.39333
1.40431
1.43102
1.47431
1.52426
1.56471
1.58782
1.59876
1.61282
1.62243
1.62163
1.62102
1.62175
1.62295
1.62164
1.61805
1.61063
1.59902
1.58151
2.12386
2.10166
2.07737
2.0508
2.02467
1.99889
1.97136
1.94231
1.91528
1.88778
1.85862
1.82787
1.80412
1.77979
1.75355
1.7212
1.69825
1.67747
1.65394
1.62808
1.60281
1.5862
1.56306
1.54231
1.53672
1.59652
1.80228
1.96999
2.00317
1.99301
1.96509
1.93305
1.90333
1.87358
1.84216
1.81593
1.79408
1.77319
1.75233
1.73194
1.71242
1.69366
1.67407
1.6514
1.6265
1.60218
1.58067
1.56407
1.55142
1.53797
1.52473
1.51342
1.50451
1.49606
1.48216
1.4648
1.45127
1.44404
1.44206
1.44292
1.44764
1.45278
1.45124
1.44843
1.44924
1.44554
1.44163
1.43994
1.43992
1.44059
1.43559
1.42945
1.42228
1.4117
1.39732
1.38375
1.37239
1.36488
1.35796
1.35494
1.35855
1.37365
1.40093
1.43587
1.46943
1.49703
1.52092
1.53926
1.55554
1.5653
1.57321
1.57669
1.57879
1.57765
1.57418
1.56137
2.10163
2.08262
2.06025
2.03683
2.01477
1.99138
1.96523
1.94026
1.91692
1.89122
1.8624
1.83544
1.814
1.7895
1.76297
1.73321
1.71352
1.69149
1.66851
1.64139
1.62052
1.59979
1.57614
1.57946
1.65846
1.87675
2.04744
2.0404
2.01998
1.98898
1.9576
1.93074
1.90759
1.88133
1.84956
1.81901
1.79516
1.774
1.75293
1.73208
1.71213
1.69286
1.67316
1.65271
1.63126
1.60943
1.58905
1.57053
1.55272
1.53518
1.51884
1.50532
1.49348
1.48103
1.46693
1.45046
1.43364
1.42381
1.41476
1.40435
1.39551
1.38897
1.38571
1.38315
1.38355
1.38654
1.38755
1.39207
1.39683
1.39692
1.39638
1.39469
1.38959
1.38061
1.37393
1.36814
1.36017
1.35182
1.34153
1.33331
1.3272
1.3229
1.32111
1.32401
1.33122
1.3423
1.36633
1.39517
1.42425
1.4549
1.48831
1.50992
1.5203
1.52874
1.5317
1.52722
2.08742
2.0661
2.04551
2.02484
2.00455
1.98295
1.959
1.93755
1.91573
1.89161
1.86379
1.84197
1.82097
1.79759
1.76935
1.74385
1.72574
1.70339
1.68035
1.65363
1.63409
1.61258
1.62445
1.73682
1.94829
2.09921
2.09261
2.05136
2.01068
1.97922
1.95405
1.93057
1.90765
1.8824
1.85283
1.8202
1.79171
1.76936
1.7492
1.73019
1.71213
1.69404
1.67488
1.65416
1.63217
1.61023
1.58986
1.57158
1.55445
1.53756
1.52043
1.50425
1.48956
1.47537
1.46002
1.4425
1.4246
1.41044
1.39798
1.38659
1.3763
1.3664
1.35787
1.34845
1.33593
1.32692
1.32614
1.32731
1.3335
1.3394
1.34649
1.35106
1.35046
1.34241
1.33421
1.33343
1.33494
1.33254
1.3263
1.31973
1.31075
1.3016
1.2965
1.29237
1.28667
1.28035
1.27553
1.27512
1.28332
1.30503
1.33686
1.3777
1.41059
1.43883
1.45877
1.47425
2.07079
2.05261
2.03187
2.01328
1.9943
1.97323
1.95095
1.93128
1.91064
1.88831
1.86308
1.84318
1.82174
1.79945
1.77312
1.75262
1.73449
1.7125
1.68683
1.66338
1.64467
1.66924
1.8186
2.03
2.14015
2.1274
2.08478
2.0423
2.00366
1.97765
1.95514
1.93116
1.90579
1.8795
1.85156
1.82056
1.78949
1.7637
1.74263
1.72406
1.7068
1.68961
1.67132
1.65138
1.62976
1.60652
1.58411
1.56676
1.5525
1.53803
1.52234
1.50547
1.48832
1.47283
1.4579
1.44182
1.42509
1.40821
1.39281
1.3789
1.36553
1.35226
1.33912
1.32786
1.31702
1.30802
1.30059
1.29161
1.28399
1.27909
1.27931
1.28111
1.28707
1.29182
1.29024
1.29029
1.29504
1.29445
1.29347
1.29313
1.28816
1.28311
1.27873
1.27332
1.26651
1.25885
1.25146
1.2445
1.23835
1.23196
1.23079
1.23886
1.25982
1.28824
1.31678
1.36999
2.04322
2.03641
2.01689
1.99987
1.98256
1.96215
1.94249
1.92333
1.90366
1.88113
1.86031
1.84233
1.82094
1.79973
1.77558
1.75944
1.73965
1.71763
1.69389
1.67529
1.71549
1.9078
2.10191
2.17057
2.15186
2.10804
2.06571
2.0328
2.00387
1.9785
1.95322
1.92621
1.89799
1.87065
1.84497
1.81869
1.78963
1.76104
1.73701
1.71678
1.69858
1.68147
1.66496
1.64841
1.62995
1.60765
1.58261
1.56023
1.54334
1.5293
1.51674
1.50452
1.49043
1.47329
1.45431
1.43483
1.41776
1.4038
1.39156
1.37918
1.36544
1.35063
1.33432
1.3191
1.30287
1.28849
1.28136
1.27527
1.2655
1.25614
1.2486
1.23896
1.2309
1.23201
1.2361
1.24058
1.24425
1.24692
1.24799
1.24838
1.25053
1.25322
1.25385
1.25201
1.24845
1.24312
1.23352
1.22485
1.2197
1.21347
1.20635
1.19988
1.19446
1.1924
1.19685
1.22758
1.91262
2.01703
2.0041
1.98544
1.96808
1.94982
1.93258
1.91429
1.89551
1.87245
1.85559
1.83778
1.81928
1.79693
1.77688
1.76157
1.73979
1.72113
1.70779
1.76923
1.99007
2.16969
2.19448
2.17714
2.1393
2.09714
2.062
2.02805
1.99989
1.97404
1.94737
1.91913
1.89045
1.86344
1.83847
1.81338
1.78586
1.75719
1.73171
1.71065
1.69215
1.67453
1.65726
1.64043
1.62374
1.60557
1.58335
1.55857
1.53665
1.51924
1.50479
1.49192
1.48026
1.46926
1.4553
1.43636
1.41606
1.39803
1.38303
1.37171
1.36249
1.35254
1.33874
1.32144
1.30106
1.28148
1.26912
1.25941
1.25003
1.23934
1.2312
1.22323
1.21232
1.20538
1.20478
1.20273
1.19827
1.1972
1.19777
1.19598
1.19712
1.20292
1.21086
1.21874
1.22332
1.22259
1.2168
1.20581
1.19688
1.19068
1.18608
1.18282
1.17823
1.17473
1.16973
1.16366
1.57694
1.92225
1.9916
1.9763
1.9547
1.93749
1.92174
1.90407
1.88587
1.86744
1.84993
1.83163
1.81373
1.79289
1.77877
1.75901
1.73828
1.74218
1.8314
2.06563
2.2212
2.21559
2.18887
2.15416
2.11995
2.08859
2.0589
2.02675
1.99443
1.96463
1.93674
1.90949
1.88306
1.8581
1.83364
1.80782
1.77956
1.75039
1.7244
1.7035
1.68591
1.6694
1.65267
1.63478
1.61533
1.5951
1.57437
1.5529
1.53254
1.51519
1.50058
1.48695
1.47277
1.45804
1.44248
1.42606
1.41018
1.39559
1.38119
1.36655
1.35239
1.33978
1.32978
1.31928
1.30407
1.28592
1.26877
1.25522
1.24325
1.23081
1.22209
1.21436
1.2048
1.19469
1.18813
1.18294
1.17805
1.17286
1.16659
1.15903
1.15348
1.154
1.15868
1.16694
1.17775
1.18608
1.18736
1.18222
1.17184
1.16775
1.16335
1.16002
1.15863
1.15731
1.15612
1.15189
1.13328
1.65647
1.91527
1.96607
1.94759
1.92474
1.90947
1.89545
1.87594
1.85876
1.84279
1.82723
1.80852
1.78912
1.77479
1.75846
1.76979
1.90858
2.13465
2.26896
2.26491
2.22618
2.1811
2.13871
2.10402
2.07513
2.04673
2.01704
1.98653
1.95596
1.92682
1.89982
1.87448
1.85016
1.82562
1.7995
1.7713
1.74258
1.71675
1.6957
1.67802
1.66164
1.6453
1.6278
1.60795
1.58611
1.56435
1.54402
1.52522
1.50776
1.49201
1.47817
1.46531
1.45129
1.43484
1.41746
1.40114
1.38702
1.37417
1.36159
1.34842
1.33405
1.3185
1.30421
1.29337
1.28366
1.27156
1.25702
1.24212
1.22785
1.21758
1.21053
1.20298
1.19308
1.18299
1.17423
1.16766
1.16189
1.15592
1.1487
1.13465
1.12792
1.12821
1.12973
1.13341
1.13823
1.14194
1.14251
1.13799
1.13427
1.13416
1.13204
1.13108
1.13262
1.13696
1.13677
1.00493
1.20526
1.70376
1.90159
1.93916
1.92276
1.90131
1.883
1.86732
1.8519
1.83714
1.82052
1.80021
1.78641
1.77218
1.80107
1.97479
2.22555
2.28534
2.26381
2.23205
2.19678
2.16127
2.12535
2.09228
2.06169
2.0325
2.00368
1.97401
1.94351
1.91422
1.88722
1.86199
1.83755
1.81299
1.78764
1.76133
1.73499
1.7102
1.68823
1.66895
1.65117
1.63378
1.6158
1.59641
1.57607
1.55649
1.53847
1.52145
1.50455
1.48709
1.46847
1.44944
1.43332
1.42148
1.41058
1.39829
1.38462
1.37048
1.35599
1.34158
1.32799
1.31432
1.30136
1.29001
1.27943
1.26786
1.25405
1.24161
1.23364
1.2268
1.21744
1.20516
1.19242
1.18128
1.17203
1.16464
1.15906
1.15293
1.14339
1.13042
1.121
1.117
1.11469
1.11361
1.11281
1.11093
1.10791
1.10299
1.09422
1.09091
1.09274
1.09585
1.10013
1.10819
1.11363
1.00004
1.01153
1.27423
1.72192
1.8882
1.91636
1.89956
1.87742
1.8598
1.84305
1.8296
1.81347
1.7961
1.78545
1.83764
2.06376
2.26658
2.33731
2.31502
2.26109
2.20725
2.16932
2.13861
2.10858
2.07944
2.05058
2.02142
1.99143
1.96017
1.92875
1.89939
1.87272
1.84772
1.82314
1.79852
1.77419
1.75035
1.72695
1.70379
1.68112
1.65964
1.63938
1.61975
1.6005
1.58179
1.56379
1.54674
1.53079
1.51569
1.50069
1.48445
1.46575
1.44473
1.42398
1.40634
1.39465
1.38688
1.37949
1.3694
1.35391
1.3353
1.32094
1.31082
1.30146
1.29279
1.28425
1.27371
1.26164
1.24746
1.23183
1.21878
1.20865
1.19702
1.18623
1.18198
1.17786
1.17115
1.16105
1.14882
1.13741
1.12853
1.11943
1.11244
1.10899
1.10634
1.10296
1.09867
1.09327
1.08598
1.07534
1.06271
1.05799
1.05869
1.06188
1.06722
1.07612
1
1.00012
1.022
1.32136
1.73473
1.87258
1.89068
1.87486
1.85316
1.8383
1.82182
1.80179
1.80367
1.8894
2.14701
2.33107
2.33414
2.31362
2.28118
2.23968
2.19551
2.15681
2.12357
2.0933
2.0648
2.03669
2.00766
1.97692
1.94471
1.91281
1.88303
1.85588
1.83075
1.8067
1.78314
1.76015
1.73781
1.71589
1.69385
1.67153
1.64952
1.62824
1.6075
1.58751
1.56891
1.55195
1.53652
1.52218
1.50823
1.49373
1.4776
1.4594
1.43982
1.42115
1.40547
1.39191
1.3807
1.37072
1.3599
1.34828
1.3364
1.32309
1.31043
1.2994
1.28793
1.27576
1.26259
1.25288
1.2443
1.23122
1.21566
1.2058
1.20002
1.19457
1.18875
1.18124
1.17145
1.15968
1.14797
1.13829
1.1291
1.1182
1.11044
1.10756
1.10441
1.09964
1.09485
1.08908
1.08076
1.0699
1.05683
1.04368
1.0401
1.04032
1.04091
1.04091
1
1
1.0003
1.0332
1.36218
1.73616
1.85386
1.86834
1.85202
1.83172
1.8108
1.81486
1.96595
2.22601
2.37139
2.38785
2.34646
2.29163
2.2492
2.21348
2.17865
2.14413
2.11012
2.07812
2.0478
2.01819
1.98829
1.95777
1.92712
1.89719
1.86848
1.84113
1.81541
1.79148
1.769
1.74724
1.7254
1.70299
1.68042
1.65848
1.63742
1.6173
1.59812
1.5796
1.56175
1.54498
1.52927
1.51445
1.50031
1.48615
1.47097
1.4544
1.43644
1.41866
1.40593
1.39785
1.38872
1.37797
1.3661
1.35296
1.33949
1.32428
1.30903
1.29898
1.29181
1.28045
1.2647
1.24959
1.23913
1.22902
1.21903
1.21164
1.20267
1.19272
1.18885
1.18564
1.17946
1.17142
1.16247
1.15194
1.13842
1.12234
1.10973
1.10544
1.10359
1.10187
1.09904
1.09351
1.08467
1.0726
1.05649
1.04024
1.03326
1.03153
1.03114
1.02838
1
1
1
1.00056
1.04639
1.38637
1.72781
1.83788
1.84479
1.82474
1.82989
2.01169
2.33557
2.39966
2.37833
2.35786
2.32487
2.27576
2.23013
2.19313
2.16064
2.12919
2.09677
2.06367
2.03097
1.99929
1.96869
1.93913
1.91052
1.88266
1.85539
1.82884
1.80368
1.78042
1.75874
1.73761
1.71588
1.69276
1.66862
1.64529
1.62436
1.60599
1.58946
1.57317
1.55618
1.54001
1.52544
1.51116
1.49616
1.48031
1.46379
1.44764
1.43287
1.41962
1.40676
1.39223
1.37714
1.36387
1.35236
1.34152
1.3312
1.32305
1.31508
1.30373
1.28665
1.26808
1.2537
1.24397
1.23584
1.22897
1.22375
1.21839
1.20966
1.19746
1.1862
1.17812
1.17148
1.16441
1.15635
1.1456
1.13046
1.1165
1.11026
1.10723
1.10453
1.10073
1.09574
1.08884
1.07818
1.06302
1.04579
1.03527
1.03145
1.02903
1.02769
1.02337
1
1
1
1
1.00096
1.05641
1.39316
1.72816
1.80842
1.83037
2.0473
2.37755
2.47357
2.44895
2.38633
2.33716
2.30042
2.26067
2.21847
2.17924
2.1458
2.11537
2.08445
2.05171
2.01802
1.98494
1.95373
1.92478
1.89756
1.87132
1.84565
1.82066
1.79676
1.77418
1.75261
1.73115
1.70904
1.68619
1.66272
1.63941
1.61846
1.60039
1.58413
1.56939
1.55487
1.53912
1.52382
1.50857
1.49287
1.47691
1.4615
1.44711
1.43333
1.41958
1.40474
1.38839
1.37252
1.35864
1.34749
1.33961
1.33353
1.32649
1.31634
1.30199
1.28326
1.26386
1.25125
1.24534
1.24002
1.23364
1.22635
1.21815
1.20758
1.1946
1.18352
1.17638
1.16986
1.16285
1.15507
1.14469
1.13017
1.11853
1.11347
1.10955
1.10548
1.10104
1.09592
1.08878
1.07759
1.06109
1.04338
1.0349
1.03121
1.0283
1.02603
1.02133
1
1
1
1
1
1.00124
1.06393
1.41406
1.647
2.01461
2.4304
2.48581
2.45213
2.43757
2.38585
2.33174
2.2883
2.24953
2.21331
2.17797
2.14336
2.10993
2.07726
2.04458
2.0119
1.97986
1.94919
1.92025
1.89289
1.86676
1.84154
1.81725
1.79418
1.7723
1.75094
1.72916
1.70669
1.68416
1.66302
1.64451
1.62699
1.60841
1.58944
1.57132
1.55721
1.54662
1.53308
1.51719
1.50137
1.48677
1.4732
1.45991
1.44616
1.43115
1.41447
1.39675
1.38009
1.36704
1.35813
1.35158
1.34511
1.33666
1.32459
1.30761
1.28626
1.27001
1.26314
1.25775
1.25129
1.24338
1.23448
1.2247
1.21279
1.19985
1.19098
1.18438
1.17735
1.16991
1.16201
1.15181
1.13866
1.12862
1.1232
1.1191
1.11555
1.11185
1.1069
1.09889
1.08522
1.06556
1.0492
1.04234
1.03814
1.03451
1.03177
1.02624
1
1
1
1
1
1.00001
1.0019
1.07392
1.42139
2.37264
2.72693
2.59703
2.48663
2.44713
2.39675
2.33791
2.28723
2.24572
2.21069
2.17763
2.14376
2.10921
2.07525
2.04248
2.01072
1.97971
1.94937
1.91995
1.892
1.8658
1.84096
1.81686
1.79323
1.77009
1.7474
1.72552
1.70468
1.6844
1.66368
1.64134
1.61836
1.59807
1.58185
1.56891
1.55625
1.54066
1.5228
1.50459
1.4884
1.4746
1.46181
1.4489
1.43514
1.41972
1.40229
1.3838
1.36716
1.35513
1.34706
1.34051
1.3337
1.32519
1.31317
1.29487
1.27166
1.25814
1.25269
1.24752
1.24148
1.2341
1.22513
1.21434
1.20064
1.18729
1.18009
1.17466
1.16806
1.16026
1.15152
1.14083
1.12824
1.11949
1.115
1.11122
1.1074
1.10351
1.09867
1.09087
1.07693
1.05634
1.0403
1.03384
1.02992
1.02648
1.02335
1.01714
)
;

boundaryField
{
    inlet
    {
        type            fixedValue;
        value           uniform 1;
    }
    outlet
    {
        type            inletOutlet;
        inletValue      uniform 1;
        value           nonuniform List<scalar> 
32
(
1.97772
1.97277
1.96213
1.93021
1.88547
1.84082
1.80728
1.76851
1.73863
1.7139
1.69303
1.67265
1.65224
1.63003
1.60445
1.58064
1.55952
1.52529
1.47197
1.36642
1.2244
1.16239
1.15153
1.13719
1.11364
1.07599
1.04107
1.02884
1.02387
1.0219
1.02688
1.01777
)
;
    }
    bottom
    {
        type            symmetryPlane;
    }
    top
    {
        type            symmetryPlane;
    }
    obstacle
    {
        type            zeroGradient;
    }
    defaultFaces
    {
        type            empty;
    }
}


// ************************************************************************* //
