/*--------------------------------*- C++ -*----------------------------------*\
  =========                 |
  \\      /  F ield         | OpenFOAM: The Open Source CFD Toolbox
   \\    /   O peration     | Website:  https://openfoam.org
    \\  /    A nd           | Version:  7
     \\/     M anipulation  |
\*---------------------------------------------------------------------------*/
FoamFile
{
    version     2.0;
    format      ascii;
    class       volVectorField;
    location    "1.8";
    object      U;
}
// * * * * * * * * * * * * * * * * * * * * * * * * * * * * * * * * * * * * * //

dimensions      [0 1 -1 0 0 0 0];

internalField   nonuniform List<vector> 
4032
(
(3 7.89744e-18 0)
(3 1.22313e-16 0)
(3 -1.66159e-16 0)
(3 -2.1553e-16 0)
(3 -9.79259e-16 0)
(3 -1.2266e-15 0)
(3 -8.15526e-16 0)
(3 -5.11491e-16 0)
(3 -6.01494e-16 0)
(3 -4.3154e-16 0)
(3 -7.00356e-17 0)
(3 1.09298e-16 0)
(1.5861 0.0151908 0)
(0.746105 0.0162255 0)
(0.662341 0.0239256 0)
(0.605789 0.0267404 0)
(0.543066 0.028984 0)
(0.479372 0.0301433 0)
(0.415565 0.0304219 0)
(0.350949 0.0312264 0)
(0.283507 0.033484 0)
(0.21049 0.036682 0)
(0.130443 0.0390776 0)
(0.0478845 0.0432038 0)
(3 -7.1599e-17 0)
(3 -1.18009e-16 0)
(3 -4.95801e-16 0)
(3 -6.8561e-16 0)
(3 -1.27183e-15 0)
(3 -1.60547e-15 0)
(3 -1.30946e-15 0)
(3 -8.29271e-16 0)
(3 -1.19969e-15 0)
(3 -1.2986e-15 0)
(3 -6.20405e-16 0)
(3 -5.95031e-16 0)
(1.61962 0.0731375 0)
(0.737707 0.070069 0)
(0.643338 0.0724395 0)
(0.584486 0.0766521 0)
(0.521585 0.0823225 0)
(0.45925 0.0861588 0)
(0.397765 0.088681 0)
(0.335634 0.092989 0)
(0.270891 0.101473 0)
(0.200935 0.112235 0)
(0.123831 0.120353 0)
(0.0454916 0.132494 0)
(3 -1.16491e-16 0)
(3 -7.7872e-16 0)
(3 -5.34474e-16 0)
(3 -3.53671e-16 0)
(3 -7.00818e-16 0)
(3 -9.50227e-16 0)
(3 -1.66033e-15 0)
(3 -1.70965e-15 0)
(3 -1.1162e-15 0)
(3 -7.61507e-16 0)
(3 -5.64448e-16 0)
(3 -1.79984e-15 0)
(1.72969 0.131162 0)
(0.753494 0.127254 0)
(0.646258 0.127918 0)
(0.5835 0.133909 0)
(0.517751 0.141201 0)
(0.454039 0.145219 0)
(0.392137 0.14801 0)
(0.329772 0.154321 0)
(0.265282 0.167751 0)
(0.196411 0.185104 0)
(0.11975 0.198139 0)
(0.0440571 0.216788 0)
(3 1.21758e-16 0)
(3 1.52195e-16 0)
(3 9.57535e-17 0)
(3 -1.83249e-16 0)
(3 -3.06003e-16 0)
(3 -4.78391e-16 0)
(3 -1.36651e-15 0)
(3 -2.07805e-15 0)
(3 -1.53539e-15 0)
(3 -5.12116e-16 0)
(3 -1.03149e-15 0)
(3 -1.64024e-15 0)
(1.90618 0.177806 0)
(0.781446 0.186386 0)
(0.658553 0.184289 0)
(0.595625 0.191765 0)
(0.52929 0.200617 0)
(0.464537 0.205207 0)
(0.40054 0.209408 0)
(0.334811 0.218672 0)
(0.267243 0.237421 0)
(0.196213 0.260782 0)
(0.118689 0.278555 0)
(0.0424426 0.301284 0)
(3 2.02375e-17 0)
(3 5.76574e-17 0)
(3 3.03195e-16 0)
(3 -4.30461e-18 0)
(3 -4.78133e-17 0)
(3 -2.95059e-16 0)
(3 -8.21519e-16 0)
(3 -8.56797e-16 0)
(3 -1.03449e-15 0)
(3 -1.38267e-15 0)
(3 -1.53627e-15 0)
(3 -1.5933e-15 0)
(2.13902 0.214327 0)
(0.816316 0.251643 0)
(0.666636 0.243893 0)
(0.607642 0.252371 0)
(0.546299 0.26267 0)
(0.484962 0.2686 0)
(0.421873 0.275471 0)
(0.355489 0.287913 0)
(0.28746 0.310823 0)
(0.214905 0.339366 0)
(0.132426 0.362878 0)
(0.049379 0.391602 0)
(3 -1.56416e-16 0)
(3 -4.41879e-17 0)
(3 3.34901e-16 0)
(3 5.53255e-16 0)
(3 3.35793e-16 0)
(3 1.65534e-16 0)
(3 2.17575e-16 0)
(3 5.10727e-16 0)
(3 1.0056e-16 0)
(3 -6.86322e-16 0)
(3 -3.94865e-16 0)
(3 -1.27866e-15 0)
(2.43735 0.24498 0)
(0.876566 0.32774 0)
(0.701365 0.30103 0)
(0.653776 0.30802 0)
(0.597762 0.319481 0)
(0.537764 0.32959 0)
(0.473101 0.342212 0)
(0.402635 0.360296 0)
(0.327657 0.390306 0)
(0.245141 0.42984 0)
(0.154268 0.467006 0)
(0.0505769 0.501591 0)
(3 7.55523e-17 0)
(3 5.11605e-17 0)
(3 -1.49901e-16 0)
(3 4.03669e-16 0)
(3 2.03655e-16 0)
(3 2.79749e-16 0)
(3 5.68616e-16 0)
(3 3.63717e-16 0)
(3 -7.86947e-17 0)
(3 -5.4901e-16 0)
(3 4.26957e-16 0)
(3 -1.90734e-16 0)
(2.84774 0.176547 0)
(1.00907 0.383842 0)
(0.776335 0.324463 0)
(0.732094 0.340417 0)
(0.674635 0.364773 0)
(0.613469 0.386431 0)
(0.54778 0.409033 0)
(0.476648 0.436917 0)
(0.400077 0.476041 0)
(0.322993 0.523174 0)
(0.231808 0.573596 0)
(0.101971 0.639692 0)
(3 -6.27226e-17 0)
(3 -2.93134e-16 0)
(3 -2.8427e-16 0)
(3 -1.70827e-16 0)
(3 -9.45158e-17 0)
(3 2.53373e-17 0)
(3 3.43967e-16 0)
(3 -3.41292e-16 0)
(3 -5.32002e-16 0)
(3 -4.2679e-16 0)
(3 8.21044e-16 0)
(3 5.88593e-16 0)
(3.04327 0.0187687 0)
(1.18274 0.388534 0)
(0.817468 0.365608 0)
(0.772521 0.39601 0)
(0.724088 0.422784 0)
(0.672405 0.447678 0)
(0.616175 0.477694 0)
(0.554655 0.515211 0)
(0.485737 0.560139 0)
(0.409534 0.628782 0)
(0.283941 0.739413 0)
(0.153251 0.909323 0)
(3 2.83696e-17 0)
(3 3.62272e-16 0)
(3 3.29828e-16 0)
(3 1.11215e-16 0)
(3 -9.59657e-17 0)
(3 -6.39404e-16 0)
(3 -6.71999e-16 0)
(3 -4.91033e-16 0)
(3 7.94649e-16 0)
(3 1.96342e-15 0)
(3 1.99327e-15 0)
(3 7.83443e-16 0)
(3.00247 5.84112e-05 0)
(1.38977 0.397441 0)
(0.81235 0.416437 0)
(0.754084 0.43768 0)
(0.718319 0.466271 0)
(0.683852 0.499945 0)
(0.651928 0.53921 0)
(0.616402 0.585514 0)
(0.567437 0.644134 0)
(0.521907 0.749609 0)
(0.484057 0.909792 0)
(0.591579 1.18645 0)
(3 -1.89248e-17 0)
(3 8.24775e-18 0)
(3 -1.15848e-17 0)
(3 3.93124e-17 0)
(3 1.86566e-17 0)
(3 -9.36394e-17 0)
(3 -1.376e-16 0)
(3 9.91495e-17 0)
(3 1.07135e-15 0)
(3 1.731e-15 0)
(3 1.12723e-15 0)
(3 -2.69468e-16 0)
(3.00001 -5.33498e-07 0)
(1.79863 0.452668 0)
(0.845061 0.493643 0)
(0.75374 0.478436 0)
(0.729345 0.503573 0)
(0.706635 0.53804 0)
(0.690665 0.581161 0)
(0.672975 0.636467 0)
(0.657651 0.713045 0)
(0.654492 0.83145 0)
(0.71364 0.966934 0)
(0.988643 1.13375 0)
(3 4.29055e-18 0)
(3 -3.00108e-16 0)
(3 5.25432e-17 0)
(3 5.10944e-16 0)
(3 8.91109e-16 0)
(3 1.17906e-15 0)
(3 1.13882e-15 0)
(3 1.09409e-15 0)
(3 1.02562e-15 0)
(3 8.49146e-16 0)
(3 6.43924e-16 0)
(3 -1.75827e-16 0)
(3 -2.75233e-07 0)
(2.48774 0.398123 0)
(0.978751 0.582491 0)
(0.826917 0.517731 0)
(0.787695 0.534547 0)
(0.760581 0.567673 0)
(0.746058 0.612686 0)
(0.737428 0.670822 0)
(0.749949 0.750118 0)
(0.781187 0.858088 0)
(0.899962 0.969859 0)
(1.19675 1.0686 0)
(3 2.20501e-16 0)
(3 -3.29815e-17 0)
(3 7.02875e-17 0)
(3 1.08411e-16 0)
(3 3.11383e-17 0)
(3 6.06353e-16 0)
(3 1.2407e-15 0)
(3 1.57267e-15 0)
(3 1.1313e-15 0)
(3 5.63887e-16 0)
(3 8.20294e-17 0)
(3 1.87323e-16 0)
(3 -4.28003e-08 0)
(3.0839 0.0695036 0)
(1.27483 0.584113 0)
(0.939955 0.558283 0)
(0.889261 0.577879 0)
(0.845816 0.605796 0)
(0.819873 0.64559 0)
(0.810275 0.698289 0)
(0.832419 0.769604 0)
(0.890093 0.8615 0)
(1.03645 0.956653 0)
(1.29503 1.01479 0)
(3 -1.19546e-16 0)
(3 2.42848e-16 0)
(3 9.50239e-17 0)
(3 -3.35034e-16 0)
(3 -7.69106e-16 0)
(3 -5.38086e-16 0)
(3 5.94679e-17 0)
(3 3.11108e-16 0)
(3 1.13528e-16 0)
(3 -6.36298e-16 0)
(3 -1.19372e-15 0)
(3 -8.02072e-16 0)
(3 -2.74173e-09 0)
(3.01294 0.000413145 0)
(1.56719 0.554922 0)
(0.963752 0.639524 0)
(0.914166 0.650807 0)
(0.885567 0.666625 0)
(0.873426 0.694497 0)
(0.877394 0.729405 0)
(0.907153 0.778383 0)
(0.97707 0.84693 0)
(1.12042 0.917501 0)
(1.33663 0.956099 0)
(3 -2.14914e-16 0)
(3 1.80292e-16 0)
(3 1.34959e-16 0)
(3 5.77908e-17 0)
(3 -2.00959e-16 0)
(3 -1.29112e-15 0)
(3 -1.31714e-15 0)
(3 -1.08553e-15 0)
(3 -7.33258e-16 0)
(3 -1.36998e-16 0)
(3 7.57955e-16 0)
(3 1.35503e-15 0)
(3 -4.07675e-11 0)
(3.00009 -3.62756e-06 0)
(2.33801 0.474638 0)
(1.06965 0.694458 0)
(0.963883 0.696888 0)
(0.9404 0.702093 0)
(0.934315 0.717735 0)
(0.944575 0.745184 0)
(0.980818 0.786014 0)
(1.0563 0.837743 0)
(1.18431 0.887376 0)
(1.36083 0.91441 0)
(3 8.61599e-17 0)
(3 -3.41061e-17 0)
(3 5.99987e-17 0)
(3 -6.08282e-17 0)
(3 -2.57228e-16 0)
(3 -7.5996e-16 0)
(3 -1.95736e-16 0)
(3 -7.68904e-17 0)
(3 -3.16191e-16 0)
(3 3.19261e-16 0)
(3 1.20084e-15 0)
(3 2.06057e-15 0)
(3 -3.96329e-14 0)
(3.00001 -3.10832e-06 0)
(3.06762 0.0850677 0)
(1.38461 0.697412 0)
(1.05452 0.717368 0)
(1.02387 0.720658 0)
(1.0076 0.743452 0)
(1.01588 0.7596 0)
(1.05115 0.785708 0)
(1.12138 0.822829 0)
(1.23001 0.856081 0)
(1.3703 0.873645 0)
(3 1.68269e-16 0)
(3 1.10651e-16 0)
(3 -7.01348e-17 0)
(3 -1.38372e-16 0)
(3 -1.05854e-16 0)
(3 -4.30616e-17 0)
(3 3.45141e-17 0)
(3 -2.04548e-17 0)
(3 -2.52891e-16 0)
(3 -3.59423e-16 0)
(3 -2.26874e-16 0)
(3 5.86088e-16 0)
(3 2.08272e-17 0)
(3 -5.40445e-07 0)
(3.01319 0.000809658 0)
(1.87639 0.659379 0)
(1.10577 0.787908 0)
(1.06903 0.784283 0)
(1.07235 0.782294 0)
(1.08439 0.789297 0)
(1.11692 0.803912 0)
(1.17932 0.824856 0)
(1.27265 0.845315 0)
(1.38607 0.856171 0)
(3 1.60999e-17 0)
(3 -3.08393e-17 0)
(3 -8.56258e-17 0)
(3 1.24436e-16 0)
(3 4.2719e-16 0)
(3 3.77264e-16 0)
(3 8.4779e-17 0)
(3 -2.83603e-16 0)
(3 -6.34389e-16 0)
(3 -1.07371e-15 0)
(3 -1.13825e-15 0)
(3 -1.01574e-15 0)
(3 7.06102e-16 0)
(3 -3.53734e-08 0)
(3.00009 3.40558e-06 0)
(2.89654 0.266836 0)
(1.32065 0.77556 0)
(1.13431 0.786795 0)
(1.15438 0.792297 0)
(1.1644 0.803419 0)
(1.1912 0.812054 0)
(1.2407 0.821986 0)
(1.31605 0.83263 0)
(1.40784 0.838386 0)
(3 -7.70331e-17 0)
(3 -5.29115e-16 0)
(3 -2.90141e-16 0)
(3 5.86124e-16 0)
(3 1.00329e-15 0)
(3 1.09113e-15 0)
(3 5.0147e-16 0)
(3 -4.75822e-16 0)
(3 -7.35765e-16 0)
(3 -7.39068e-16 0)
(3 -8.9e-16 0)
(3 -6.36209e-16 0)
(3 5.10089e-17 0)
(3 -1.27933e-10 0)
(3.00001 -2.78807e-06 0)
(3.04174 0.00881716 0)
(1.68844 0.733304 0)
(1.16267 0.831664 0)
(1.17221 0.831348 0)
(1.20477 0.838816 0)
(1.24143 0.845794 0)
(1.29031 0.84942 0)
(1.35301 0.850973 0)
(1.42993 0.846815 0)
(3 -2.25547e-16 0)
(3 -4.42143e-16 0)
(3 -7.20453e-17 0)
(3 6.60146e-16 0)
(3 8.0796e-16 0)
(3 3.59391e-16 0)
(3 -6.69682e-17 0)
(3 -1.02276e-17 0)
(3 -7.69356e-17 0)
(3 -7.06263e-17 0)
(3 -5.41395e-16 0)
(3 -1.12096e-15 0)
(3 -1.21876e-15 0)
(3 -1.38736e-13 0)
(3 -5.24785e-07 0)
(3.00072 0.00011877 0)
(2.69772 0.428225 0)
(1.31785 0.851297 0)
(1.20833 0.822275 0)
(1.25235 0.831369 0)
(1.28892 0.843733 0)
(1.33916 0.849837 0)
(1.39547 0.850296 0)
(1.46258 0.84271 0)
(3 3.86301e-17 0)
(3 2.12728e-16 0)
(3 1.38069e-17 0)
(3 -4.2899e-17 0)
(3 -1.1592e-16 0)
(3 -3.32671e-16 0)
(3 -6.54011e-16 0)
(3 -1.10696e-16 0)
(3 4.56508e-16 0)
(3 9.094e-16 0)
(3 6.22376e-16 0)
(3 -3.3752e-16 0)
(3 -9.54571e-16 0)
(3 -5.40478e-16 0)
(3 -3.29609e-08 0)
(3 3.25876e-08 0)
(3.05695 0.0280752 0)
(1.73182 0.779883 0)
(1.24672 0.863983 0)
(1.2741 0.862757 0)
(1.31158 0.867629 0)
(1.36137 0.87182 0)
(1.41718 0.871688 0)
(1.47972 0.863974 0)
(3 1.71567e-16 0)
(3 5.40903e-16 0)
(3 1.68074e-17 0)
(3 -1.27657e-15 0)
(3 -9.66317e-16 0)
(3 -6.35631e-16 0)
(3 -3.61982e-16 0)
(3 2.4821e-16 0)
(3 9.46491e-16 0)
(3 1.65542e-15 0)
(3 2.21696e-15 0)
(3 1.83104e-15 0)
(3 1.31549e-15 0)
(3 5.62761e-16 0)
(3 -1.54904e-10 0)
(3 -8.46804e-08 0)
(3.00203 0.000682666 0)
(2.71869 0.448301 0)
(1.40571 0.90405 0)
(1.30808 0.86304 0)
(1.34889 0.86146 0)
(1.39076 0.865424 0)
(1.4431 0.866727 0)
(1.50238 0.862049 0)
(3 -2.7799e-18 0)
(3 2.85547e-16 0)
(3 1.38535e-16 0)
(3 -4.41582e-16 0)
(3 -6.15787e-16 0)
(3 -3.41193e-16 0)
(3 6.86289e-16 0)
(3 7.42934e-16 0)
(3 8.69095e-16 0)
(3 9.9773e-16 0)
(3 1.17538e-15 0)
(3 2.00863e-15 0)
(3 2.90746e-15 0)
(3 2.345e-15 0)
(3 -8.91369e-14 0)
(3 -3.09836e-08 0)
(3 1.66501e-06 0)
(3.04784 0.0296712 0)
(1.90106 0.789172 0)
(1.35902 0.898543 0)
(1.37613 0.893006 0)
(1.41331 0.890379 0)
(1.45686 0.887163 0)
(1.50852 0.881081 0)
(3 -1.91309e-17 0)
(3 -3.77806e-16 0)
(3 -5.18319e-17 0)
(3 -2.71149e-16 0)
(3 2.20902e-16 0)
(3 9.04823e-16 0)
(3 6.37775e-16 0)
(3 2.88996e-16 0)
(3 -1.15974e-17 0)
(3 -6.18405e-17 0)
(3 1.51755e-16 0)
(3 8.75815e-16 0)
(3 1.01576e-15 0)
(3 1.35211e-15 0)
(3 5.93638e-16 0)
(3 -4.31203e-09 0)
(3 -3.65585e-09 0)
(3.00148 0.000942529 0)
(2.8089 0.346613 0)
(1.61465 0.920939 0)
(1.40508 0.905208 0)
(1.45024 0.898698 0)
(1.48282 0.891711 0)
(1.52668 0.881942 0)
(3 -1.04924e-16 0)
(3 -6.08784e-16 0)
(3 -3.8695e-16 0)
(3 -8.87639e-17 0)
(3 7.1708e-16 0)
(3 9.46244e-16 0)
(3 6.14208e-16 0)
(3 5.72451e-16 0)
(3 1.67401e-16 0)
(3 -4.33349e-16 0)
(3 -2.37934e-16 0)
(3 -2.68344e-16 0)
(3 -1.07939e-15 0)
(3 -1.37494e-15 0)
(3 -1.25491e-15 0)
(3 -8.07371e-11 0)
(3 -1.01345e-09 0)
(3 2.80013e-06 0)
(3.01899 0.0216483 0)
(2.2714 0.725727 0)
(1.49063 0.940201 0)
(1.47908 0.930464 0)
(1.51107 0.913569 0)
(1.54506 0.900938 0)
(3 -3.61785e-16 0)
(3 -1.42707e-17 0)
(3 6.31408e-16 0)
(3 6.34021e-16 0)
(3 4.60464e-16 0)
(3 3.75918e-16 0)
(3 8.02405e-16 0)
(3 8.65659e-16 0)
(3 5.6973e-16 0)
(3 -4.80187e-17 0)
(3 -7.99228e-16 0)
(3 -1.60511e-15 0)
(3 -1.49954e-15 0)
(3 -1.42913e-15 0)
(3 -8.06298e-16 0)
(3 -1.78147e-13 0)
(3 -9.20471e-11 0)
(3 5.98444e-10 0)
(3.00028 0.000659842 0)
(2.97357 0.166917 0)
(1.88742 0.863305 0)
(1.51977 0.941738 0)
(1.55344 0.927779 0)
(1.58167 0.912273 0)
(3 2.48078e-16 0)
(3 1.84861e-16 0)
(3 3.24425e-16 0)
(3 5.24086e-16 0)
(3 1.44342e-16 0)
(3 -9.98454e-16 0)
(3 -7.82902e-16 0)
(3 -4.8397e-16 0)
(3 -5.13068e-16 0)
(3 -6.76241e-16 0)
(3 -1.3228e-15 0)
(3 -1.80377e-15 0)
(3 -1.18038e-15 0)
(3 -7.13762e-16 0)
(3 -4.98427e-16 0)
(3 -6.87989e-16 0)
(3 -4.10486e-12 0)
(3 -4.01326e-12 0)
(3 1.50365e-06 0)
(3.00433 0.00929277 0)
(2.66153 0.46422 0)
(1.72673 0.943753 0)
(1.56863 0.954125 0)
(1.60671 0.940013 0)
(3 1.70738e-16 0)
(3 1.58445e-16 0)
(3 -4.38198e-16 0)
(3 -2.18797e-16 0)
(3 -2.07573e-16 0)
(3 -1.60337e-16 0)
(3 -4.26899e-16 0)
(3 -1.58577e-15 0)
(3 -2.12587e-15 0)
(3 -2.20044e-15 0)
(3 -2.04348e-15 0)
(3 -1.06041e-15 0)
(3 -3.68742e-16 0)
(3 -2.53871e-16 0)
(3 -2.62806e-16 0)
(3 -2.013e-16 0)
(3 -3.9357e-14 0)
(3 -1.19556e-12 0)
(3 6.02339e-10 0)
(3 0.000118672 0)
(3.00221 0.0467881 0)
(2.31796 0.714006 0)
(1.64767 0.970377 0)
(1.62419 0.966294 0)
(3 -2.1508e-16 0)
(3 7.36186e-17 0)
(3 -6.50448e-16 0)
(3 -6.25707e-16 0)
(3 1.27823e-17 0)
(3 3.96883e-16 0)
(3 2.14492e-16 0)
(3 -5.82138e-16 0)
(3 -1.2644e-15 0)
(3 -1.41107e-15 0)
(3 -1.49587e-15 0)
(3 -1.16482e-15 0)
(3 -9.34448e-16 0)
(3 -3.48172e-16 0)
(3 -9.32376e-20 0)
(3 3.34261e-16 0)
(3 6.73521e-16 0)
(3 -1.26911e-13 0)
(3 -4.07298e-14 0)
(3 1.32214e-07 0)
(3.00011 0.0017805 0)
(2.94084 0.171564 0)
(2.05746 0.832777 0)
(1.68359 0.968161 0)
(3 2.22166e-16 0)
(3 6.10332e-17 0)
(3 -1.89415e-16 0)
(3 -6.25405e-17 0)
(3 -1.59589e-16 0)
(3 -6.18141e-16 0)
(3 -6.35362e-16 0)
(3 4.29528e-16 0)
(3 1.07759e-16 0)
(3 -1.17147e-16 0)
(3 1.53139e-17 0)
(3 -5.09178e-16 0)
(3 -6.00196e-16 0)
(3 -4.37562e-16 0)
(3 -6.69048e-16 0)
(3 -5.47168e-16 0)
(3 -1.17447e-16 0)
(3 -3.40765e-15 0)
(3 -1.4768e-14 0)
(3 5.74108e-11 0)
(3 6.42109e-06 0)
(3.00026 0.0105636 0)
(2.75841 0.364463 0)
(1.92757 0.901111 0)
(3 1.64592e-16 0)
(3 1.6643e-16 0)
(3 3.46965e-16 0)
(3 4.89058e-17 0)
(3 -1.9269e-16 0)
(3 -1.97807e-16 0)
(3 1.10507e-17 0)
(3 3.33641e-16 0)
(3 9.36544e-16 0)
(3 9.96177e-16 0)
(3 6.69143e-16 0)
(3 6.07915e-16 0)
(3 7.18588e-16 0)
(3 4.17121e-16 0)
(3 1.37519e-16 0)
(3 -1.5934e-17 0)
(3 -4.31316e-16 0)
(3 -1.77429e-15 0)
(3 -4.2845e-15 0)
(3 1.70453e-15 0)
(3 4.83204e-09 0)
(2.99998 0.000122246 0)
(2.99566 0.032579 0)
(2.53542 0.544931 0)
(3 -2.74797e-16 0)
(3 -9.05079e-17 0)
(3 6.42782e-16 0)
(3 2.79772e-17 0)
(3 6.02574e-17 0)
(3 1.95645e-16 0)
(3 1.81559e-16 0)
(3 4.96209e-16 0)
(3 1.02642e-15 0)
(3 5.9363e-16 0)
(3 -3.59667e-16 0)
(3 -4.99229e-16 0)
(3 1.13902e-15 0)
(3 1.12037e-15 0)
(3 8.63192e-16 0)
(3 8.20738e-16 0)
(3 -8.7878e-16 0)
(3 -1.52222e-15 0)
(3 -1.93406e-15 0)
(3 -1.52909e-15 0)
(3 1.13707e-12 0)
(3 1.60969e-07 0)
(2.99986 0.000926623 0)
(2.97263 0.0763396 0)
(3 -4.30014e-18 0)
(3 1.12349e-16 0)
(3 8.55503e-16 0)
(3 9.72305e-16 0)
(3 7.56003e-16 0)
(3 4.2604e-16 0)
(3 3.03644e-17 0)
(3 3.26589e-17 0)
(3 2.9126e-16 0)
(3 3.06316e-16 0)
(3 -1.57029e-16 0)
(3 -4.91024e-16 0)
(3 8.28647e-16 0)
(3 9.97195e-16 0)
(3 4.09337e-16 0)
(3 -5.40599e-16 0)
(3 -8.39581e-16 0)
(3 -4.78723e-16 0)
(3 2.04098e-17 0)
(3 2.8749e-16 0)
(3 -6.72686e-17 0)
(3 8.75667e-11 0)
(3 2.36042e-06 0)
(2.99951 0.00354575 0)
(3 2.64628e-16 0)
(3 2.42825e-16 0)
(3 -9.37578e-17 0)
(3 1.97254e-16 0)
(3 2.07369e-16 0)
(3 7.46702e-17 0)
(3 1.7515e-16 0)
(3 3.76691e-16 0)
(3 2.63285e-16 0)
(3 5.06277e-16 0)
(3 7.77251e-16 0)
(3 5.92657e-16 0)
(3 4.99098e-16 0)
(3 3.20747e-16 0)
(3 -6.39182e-16 0)
(3 -1.63954e-15 0)
(3 -6.72362e-16 0)
(3 3.08723e-16 0)
(3 -1.19401e-16 0)
(3 -4.85699e-16 0)
(3 -9.24521e-16 0)
(3 6.57586e-15 0)
(3 2.20766e-09 0)
(3 1.76628e-05 0)
(3 -1.06294e-16 0)
(3 -3.33888e-16 0)
(3 -1.01572e-15 0)
(3 -7.12539e-16 0)
(3 -5.37862e-16 0)
(3 -3.63934e-16 0)
(3 5.49959e-17 0)
(3 2.17133e-16 0)
(3 1.19611e-17 0)
(3 4.81959e-16 0)
(3 1.43484e-15 0)
(3 7.67597e-16 0)
(3 -5.05801e-16 0)
(3 -6.941e-16 0)
(3 -1.20298e-15 0)
(3 -9.81132e-16 0)
(3 -5.25414e-16 0)
(3 -2.57852e-16 0)
(3 -1.00478e-15 0)
(3 -1.04549e-15 0)
(3 -4.12962e-16 0)
(3 -4.68137e-16 0)
(3 3.15319e-13 0)
(3 2.22245e-08 0)
(3 -2.13746e-18 0)
(3 -4.33778e-17 0)
(3 -3.33945e-16 0)
(3 1.30573e-16 0)
(3 5.74746e-16 0)
(3 2.39406e-16 0)
(3 -3.72489e-16 0)
(3 -6.42732e-16 0)
(3 -8.36189e-17 0)
(3 9.91787e-16 0)
(3 1.14003e-15 0)
(3 9.94523e-16 0)
(3 3.34113e-16 0)
(3 1.8799e-16 0)
(3 -5.48759e-16 0)
(3 -6.66873e-16 0)
(3 -9.86074e-16 0)
(3 -1.20635e-15 0)
(3 -7.74145e-16 0)
(3 -6.12827e-16 0)
(3 4.17987e-17 0)
(3 -1.93051e-16 0)
(3 -4.75796e-16 0)
(3 5.98056e-12 0)
(3 8.83932e-17 0)
(3 2.58787e-16 0)
(3 3.53342e-16 0)
(3 1.24632e-16 0)
(3 1.12913e-16 0)
(3 -4.95551e-16 0)
(3 -7.08582e-16 0)
(3 -6.07925e-16 0)
(3 -2.31504e-16 0)
(3 -1.27601e-16 0)
(3 3.61026e-17 0)
(3 4.16952e-16 0)
(3 7.12461e-16 0)
(3 -6.47405e-16 0)
(3 -8.81224e-16 0)
(3 -1.1223e-15 0)
(3 -8.76087e-16 0)
(3 -9.37962e-16 0)
(3 -8.60311e-16 0)
(3 -2.51946e-16 0)
(3 4.32273e-17 0)
(3 2.24752e-16 0)
(3 -1.69386e-16 0)
(3 1.09022e-15 0)
(3 -8.41453e-17 0)
(3 -6.44755e-17 0)
(3 1.98855e-16 0)
(3 -1.16254e-16 0)
(3 -3.37912e-16 0)
(3 8.88512e-17 0)
(3 3.14386e-16 0)
(3 -1.7937e-16 0)
(3 -8.99158e-16 0)
(3 -1.07048e-15 0)
(3 -9.71274e-16 0)
(3 -9.11453e-16 0)
(3 -8.6283e-16 0)
(3 -1.2568e-15 0)
(3 -8.24853e-16 0)
(3 -3.76042e-16 0)
(3 1.86374e-16 0)
(3 4.71601e-16 0)
(3 5.36786e-16 0)
(3 3.63882e-16 0)
(3 1.40809e-16 0)
(3 4.35177e-16 0)
(3 1.35442e-16 0)
(3 4.8538e-17 0)
(3 1.47247e-17 0)
(3 -5.66021e-16 0)
(3 -7.74061e-16 0)
(3 -6.3149e-16 0)
(3 -4.69451e-16 0)
(3 -2.36654e-16 0)
(3 1.65687e-16 0)
(3 -5.54914e-16 0)
(3 -7.61515e-16 0)
(3 -7.18766e-16 0)
(3 -8.1714e-16 0)
(3 -1.03925e-15 0)
(3 -1.58193e-15 0)
(3 -1.72534e-15 0)
(3 -1.48403e-15 0)
(3 -9.1789e-16 0)
(3 -4.10848e-16 0)
(3 4.98823e-16 0)
(3 4.81329e-16 0)
(3 -3.2586e-17 0)
(3 -5.24155e-16 0)
(3 -7.70823e-16 0)
(3 9.60667e-17 0)
(3 4.75205e-16 0)
(3 2.83594e-16 0)
(3 2.07858e-16 0)
(3 -6.1904e-16 0)
(3 -7.12892e-16 0)
(3 -6.17546e-16 0)
(3 -1.1292e-15 0)
(3 -1.16471e-15 0)
(3 -4.63918e-16 0)
(3 -5.11539e-16 0)
(3 -6.93475e-16 0)
(3 -4.72464e-16 0)
(3 -3.97528e-16 0)
(3 -1.39409e-15 0)
(3 -1.55873e-15 0)
(3 -1.45079e-15 0)
(3 -1.53242e-15 0)
(3 -9.95213e-16 0)
(3 -6.48647e-16 0)
(3 -5.59394e-16 0)
(3 -1.36465e-15 0)
(3 -2.04619e-15 0)
(3 -9.93833e-16 0)
(3 6.26013e-16 0)
(3 1.82686e-15 0)
(3 2.10729e-16 0)
(3 4.65877e-16 0)
(3 2.34171e-16 0)
(3 3.93372e-17 0)
(3 -2.25707e-16 0)
(3 -6.1938e-16 0)
(3 -6.94276e-16 0)
(3 4.52165e-17 0)
(3 3.45908e-17 0)
(3 2.65659e-17 0)
(3 4.97995e-17 0)
(3 6.26195e-17 0)
(3 -5.19342e-16 0)
(3 -7.4943e-16 0)
(3 -4.59814e-16 0)
(3 -5.78302e-16 0)
(3 -8.51795e-16 0)
(3 -9.15692e-16 0)
(3 -6.71607e-16 0)
(3 -7.66232e-16 0)
(3 -1.46036e-15 0)
(3 -1.22465e-15 0)
(3 -6.09485e-16 0)
(3 3.68303e-16 0)
(1.5004 1.25992 0)
(2.03697 1.22059 0)
(2.32376 1.42608 0)
(2.45943 0.852692 0)
(2.61539 0.366649 0)
(2.68354 -0.067362 0)
(2.67648 -0.260128 0)
(2.58983 -0.341447 0)
(2.47784 -0.275491 0)
(2.47186 -0.264759 0)
(2.49026 -0.296432 0)
(2.5125 -0.247369 0)
(2.51375 -0.14807 0)
(2.49071 -0.12308 0)
(2.45092 -0.106191 0)
(2.41996 -0.083468 0)
(2.39937 -0.0765421 0)
(2.42418 -0.0615199 0)
(2.45389 -0.0264882 0)
(2.46038 -0.00972223 0)
(2.46039 -0.0112167 0)
(2.4632 -0.0130601 0)
(2.46332 -0.0113231 0)
(2.45918 -0.00947803 0)
(2.44517 -0.00493902 0)
(2.4361 -0.00403851 0)
(2.43811 -0.00489699 0)
(2.44981 -0.00619936 0)
(2.46443 -0.00691185 0)
(2.47162 -0.0066114 0)
(2.47647 -0.00697857 0)
(2.47701 -0.00819902 0)
(2.47518 -0.00896756 0)
(2.47262 -0.00896461 0)
(2.47653 -0.00515819 0)
(2.48151 -0.0023351 0)
(2.48386 -0.000894959 0)
(2.48799 0.000259716 0)
(2.49398 0.00073418 0)
(2.49903 0.000850899 0)
(2.50156 0.00117192 0)
(2.50356 0.00540094 0)
(2.50296 0.000253189 0)
(2.4802 -0.0199926 0)
(2.34596 -0.10889 0)
(2.11483 -0.238616 0)
(1.89669 -0.30974 0)
(1.75564 -0.288186 0)
(1.71256 -0.23492 0)
(1.64422 -0.15639 0)
(1.6619 -0.0787209 0)
(1.72492 -0.0310573 0)
(1.78349 0.00259723 0)
(1.82102 0.012565 0)
(1.85406 0.0119615 0)
(1.88208 0.00763898 0)
(1.90951 0.00249279 0)
(1.93667 0.00215423 0)
(1.96035 0.00351233 0)
(1.97948 0.00446221 0)
(1.99442 0.00530252 0)
(2.00908 0.00712146 0)
(2.03024 0.00886063 0)
(2.05544 0.0101863 0)
(2.08153 0.0105172 0)
(2.10776 0.00988461 0)
(2.13579 0.00795457 0)
(2.16463 0.00708525 0)
(2.19156 0.00679199 0)
(2.21448 0.00630637 0)
(2.22658 0.00633256 0)
(2.22949 0.00885225 0)
(2.23972 0.0120209 0)
(2.25841 0.0129223 0)
(2.27877 0.0131558 0)
(2.29904 0.0133539 0)
(2.32302 0.0125726 0)
(2.34492 0.00945372 0)
(2.36523 0.00695661 0)
(2.38745 0.00593356 0)
(2.40681 0.00503193 0)
(2.40969 0.00646105 0)
(2.3974 0.01134 0)
(2.39632 0.0161072 0)
(2.4109 0.0171526 0)
(2.42791 0.0174213 0)
(2.44663 0.0170186 0)
(2.47292 0.0153654 0)
(2.50669 0.0112342 0)
(2.52848 0.00686917 0)
(2.55317 0.00494829 0)
(2.57733 0.00339979 0)
(2.58697 0.00390824 0)
(2.56928 0.00956525 0)
(2.55948 0.0154499 0)
(2.5844 0.0153852 0)
(1.76184 1.1124 0)
(2.30676 0.74185 0)
(2.56071 0.446832 0)
(2.60835 0.137288 0)
(2.74096 -0.229476 0)
(2.79887 -0.472738 0)
(2.81097 -0.586078 0)
(2.75978 -0.646079 0)
(2.74995 -0.619492 0)
(2.67787 -0.513022 0)
(2.65246 -0.38344 0)
(2.62122 -0.275861 0)
(2.56363 -0.18208 0)
(2.53634 -0.140115 0)
(2.51552 -0.108952 0)
(2.48734 -0.0641123 0)
(2.46578 -0.0428446 0)
(2.47698 -0.0434459 0)
(2.49356 0.00354902 0)
(2.49159 0.0261912 0)
(2.47872 0.0191553 0)
(2.47626 -0.00596098 0)
(2.47871 -0.0233292 0)
(2.47426 -0.0209215 0)
(2.46442 -0.0133975 0)
(2.46024 -0.00719952 0)
(2.46139 -0.00650166 0)
(2.47018 -0.00798293 0)
(2.48513 -0.00846056 0)
(2.49407 -0.00401719 0)
(2.49979 -0.00289091 0)
(2.50145 -0.00574191 0)
(2.50086 -0.00908359 0)
(2.49905 -0.0122956 0)
(2.49967 -0.00730475 0)
(2.50269 0.000934354 0)
(2.50515 0.00389677 0)
(2.5086 0.00730728 0)
(2.51297 0.0118056 0)
(2.51522 0.0136997 0)
(2.51785 0.0180845 0)
(2.51153 0.00528455 0)
(2.48466 -0.0533727 0)
(2.38205 -0.216745 0)
(2.22921 -0.446179 0)
(2.06747 -0.655006 0)
(2.02508 -0.641532 0)
(1.95684 -0.502585 0)
(1.8814 -0.261649 0)
(1.79182 -0.0735483 0)
(1.74124 0.0270215 0)
(1.75805 0.03496 0)
(1.79351 0.0439995 0)
(1.82858 0.0397063 0)
(1.86156 0.026973 0)
(1.88722 0.0137124 0)
(1.91664 -0.000866775 0)
(1.94363 -0.00600992 0)
(1.96929 -0.0052106 0)
(1.99332 -0.0036419 0)
(2.01374 -0.000224614 0)
(2.03025 0.00854957 0)
(2.04886 0.0233037 0)
(2.06904 0.0361516 0)
(2.09008 0.0415999 0)
(2.11481 0.0411953 0)
(2.1405 0.0355904 0)
(2.16901 0.0212065 0)
(2.19477 0.00799137 0)
(2.21796 -0.000305331 0)
(2.23696 -0.00630251 0)
(2.25022 -0.00197307 0)
(2.26273 0.0128434 0)
(2.27603 0.0298725 0)
(2.29031 0.0418871 0)
(2.30784 0.0460582 0)
(2.32619 0.0455696 0)
(2.34779 0.0394161 0)
(2.37089 0.0287733 0)
(2.39106 0.0159937 0)
(2.40881 0.0017665 0)
(2.42022 -0.00718864 0)
(2.42263 0.00192799 0)
(2.41968 0.0250559 0)
(2.41967 0.0449937 0)
(2.43339 0.0505535 0)
(2.45054 0.0515316 0)
(2.47178 0.0495727 0)
(2.49851 0.040257 0)
(2.52432 0.0292198 0)
(2.54895 0.0190609 0)
(2.57166 0.00759388 0)
(2.58813 -0.00560103 0)
(2.59047 -0.00388267 0)
(2.58303 0.0167806 0)
(2.59714 0.0365129 0)
(1.69485 1.03449 0)
(2.11285 0.788715 0)
(2.30354 0.654148 0)
(2.43005 0.544692 0)
(2.66231 0.164429 0)
(2.70767 -0.139235 0)
(2.73948 -0.1366 0)
(2.75423 -0.196271 0)
(2.79593 -0.28629 0)
(2.79743 -0.40363 0)
(2.79596 -0.455643 0)
(2.77501 -0.445497 0)
(2.71381 -0.416973 0)
(2.69541 -0.373556 0)
(2.69329 -0.318434 0)
(2.67172 -0.247526 0)
(2.63914 -0.178434 0)
(2.60589 -0.14435 0)
(2.57049 -0.0728383 0)
(2.55417 -0.0142984 0)
(2.5398 -0.0142143 0)
(2.53452 -0.0162641 0)
(2.53706 -0.00636371 0)
(2.52957 0.00670266 0)
(2.51997 0.00590923 0)
(2.51827 -0.00488314 0)
(2.5197 -0.0153634 0)
(2.52127 -0.0152746 0)
(2.52852 -0.0140321 0)
(2.53818 -0.0163677 0)
(2.54622 -0.0157662 0)
(2.54758 -0.0152772 0)
(2.54486 -0.0168373 0)
(2.54138 -0.017043 0)
(2.54317 -0.0122375 0)
(2.54675 -0.00408347 0)
(2.55009 0.00273579 0)
(2.55284 0.00653475 0)
(2.55365 0.0068497 0)
(2.55257 0.00743779 0)
(2.54261 -0.0104763 0)
(2.48431 -0.100519 0)
(2.37826 -0.285772 0)
(2.21374 -0.515041 0)
(2.09691 -0.675476 0)
(2.0869 -0.675317 0)
(2.12558 -0.698273 0)
(2.137 -0.679383 0)
(2.12078 -0.594442 0)
(2.07056 -0.423205 0)
(2.00512 -0.237689 0)
(1.93288 -0.108399 0)
(1.87109 -0.025943 0)
(1.88457 0.0146967 0)
(1.89896 0.0406207 0)
(1.92339 0.0465879 0)
(1.94557 0.037248 0)
(1.96632 0.0275797 0)
(1.99125 0.0193338 0)
(2.02034 0.0159956 0)
(2.04487 0.0134602 0)
(2.06219 0.0102891 0)
(2.07924 0.0165958 0)
(2.09773 0.0278146 0)
(2.11705 0.0397322 0)
(2.13527 0.0471058 0)
(2.15705 0.0470661 0)
(2.17949 0.0425909 0)
(2.20175 0.0336803 0)
(2.22502 0.0242531 0)
(2.24844 0.0154791 0)
(2.27001 0.00961304 0)
(2.29011 0.0113948 0)
(2.30773 0.0251589 0)
(2.3193 0.0479571 0)
(2.32504 0.0659151 0)
(2.33613 0.0687167 0)
(2.35378 0.0643217 0)
(2.37173 0.0560733 0)
(2.38834 0.0424951 0)
(2.40356 0.0276558 0)
(2.41968 0.0169212 0)
(2.43549 0.013911 0)
(2.44943 0.0226351 0)
(2.45565 0.045645 0)
(2.45555 0.0690379 0)
(2.4677 0.0755462 0)
(2.48673 0.0733914 0)
(2.50538 0.0678309 0)
(2.52462 0.0577216 0)
(2.54432 0.043987 0)
(2.56208 0.0303396 0)
(2.57711 0.0185143 0)
(2.5932 0.0108347 0)
(2.60761 0.0168526 0)
(2.62694 0.0389705 0)
(1.62967 0.987051 0)
(1.88352 0.905213 0)
(2.16339 0.682562 0)
(2.36472 0.479814 0)
(2.43989 0.40199 0)
(2.54674 0.173344 0)
(2.61061 0.0392316 0)
(2.68343 -0.042553 0)
(2.77093 -0.248548 0)
(2.75469 -0.398848 0)
(2.76598 -0.402389 0)
(2.78702 -0.44633 0)
(2.77916 -0.496319 0)
(2.77798 -0.484762 0)
(2.77369 -0.455703 0)
(2.75865 -0.407724 0)
(2.73513 -0.360719 0)
(2.70407 -0.303154 0)
(2.66502 -0.224202 0)
(2.6439 -0.142817 0)
(2.64099 -0.12089 0)
(2.63505 -0.1048 0)
(2.60032 -0.0788704 0)
(2.57953 -0.0382272 0)
(2.57252 -0.0285765 0)
(2.57007 -0.0106371 0)
(2.56523 0.0147534 0)
(2.56457 0.0180833 0)
(2.56724 0.0130757 0)
(2.57498 0.00259125 0)
(2.58514 -0.00131329 0)
(2.58862 -0.00656396 0)
(2.58835 -0.0203952 0)
(2.58436 -0.027476 0)
(2.5877 -0.0249208 0)
(2.59365 -0.0195724 0)
(2.59592 -0.00851476 0)
(2.59504 0.00925433 0)
(2.59492 0.0133076 0)
(2.57954 -0.00724969 0)
(2.51588 -0.101185 0)
(2.33681 -0.34682 0)
(2.16807 -0.613656 0)
(2.15583 -0.636049 0)
(2.14295 -0.650508 0)
(2.14672 -0.672434 0)
(2.15288 -0.695811 0)
(2.16397 -0.697015 0)
(2.17815 -0.686522 0)
(2.18493 -0.641826 0)
(2.17425 -0.548105 0)
(2.11084 -0.384312 0)
(2.0076 -0.200708 0)
(1.98789 -0.0912107 0)
(1.96607 -0.00719843 0)
(1.97847 0.0308073 0)
(1.97956 0.0391132 0)
(1.98811 0.0436346 0)
(2.01024 0.0507949 0)
(2.04344 0.0472081 0)
(2.0741 0.0396669 0)
(2.09493 0.0273961 0)
(2.11304 0.0168379 0)
(2.12963 0.0163309 0)
(2.14942 0.0269212 0)
(2.16509 0.0419755 0)
(2.17775 0.0523746 0)
(2.19543 0.0518491 0)
(2.21614 0.0481776 0)
(2.23872 0.0440353 0)
(2.26299 0.0413215 0)
(2.28694 0.0389869 0)
(2.3091 0.0387951 0)
(2.32891 0.0437294 0)
(2.34415 0.0530387 0)
(2.35072 0.0648795 0)
(2.35259 0.0724651 0)
(2.36332 0.0688643 0)
(2.37887 0.0609192 0)
(2.39431 0.053904 0)
(2.41061 0.0512342 0)
(2.42655 0.0503244 0)
(2.44544 0.0484994 0)
(2.46565 0.0479223 0)
(2.48597 0.0504241 0)
(2.49728 0.0635445 0)
(2.49727 0.0825285 0)
(2.50167 0.0889069 0)
(2.515 0.0843019 0)
(2.52855 0.0761913 0)
(2.54063 0.06418 0)
(2.55659 0.0515169 0)
(2.57589 0.047017 0)
(2.59691 0.0442699 0)
(2.61714 0.0439781 0)
(2.64914 0.0489625 0)
(1.57839 0.941773 0)
(1.79909 0.879818 0)
(2.0382 0.724609 0)
(2.19838 0.593434 0)
(2.28847 0.512328 0)
(2.4215 0.324735 0)
(2.51731 0.138669 0)
(2.58608 0.0961961 0)
(2.62569 0.0478376 0)
(2.66611 -0.122082 0)
(2.67887 -0.208925 0)
(2.68661 -0.224836 0)
(2.72757 -0.32629 0)
(2.74028 -0.366276 0)
(2.75115 -0.382478 0)
(2.75457 -0.387362 0)
(2.7569 -0.40859 0)
(2.75736 -0.405016 0)
(2.73487 -0.36611 0)
(2.71105 -0.302531 0)
(2.70712 -0.254039 0)
(2.70109 -0.225724 0)
(2.65662 -0.165918 0)
(2.62682 -0.110393 0)
(2.62874 -0.104031 0)
(2.617 -0.0662161 0)
(2.60336 -0.0126766 0)
(2.59382 -0.00272976 0)
(2.58942 -0.0053927 0)
(2.59112 -0.00791312 0)
(2.59686 -0.00454161 0)
(2.59956 0.00353248 0)
(2.60351 1.55917e-05 0)
(2.60853 -0.00912961 0)
(2.61219 -0.0137582 0)
(2.62112 -0.010454 0)
(2.62524 -0.000113415 0)
(2.62156 -0.00285803 0)
(2.60468 -0.0273314 0)
(2.51793 -0.151801 0)
(2.33884 -0.364676 0)
(2.14676 -0.611059 0)
(2.10703 -0.720007 0)
(2.12342 -0.685796 0)
(2.15779 -0.649185 0)
(2.18097 -0.646465 0)
(2.19026 -0.660559 0)
(2.18698 -0.666319 0)
(2.19612 -0.663218 0)
(2.21637 -0.657913 0)
(2.2369 -0.640386 0)
(2.24048 -0.594595 0)
(2.20445 -0.492486 0)
(2.14577 -0.338131 0)
(2.06827 -0.157671 0)
(2.06416 -0.0649715 0)
(2.03353 0.00151938 0)
(2.02199 0.0405749 0)
(2.03535 0.051972 0)
(2.05706 0.0507949 0)
(2.08277 0.0616898 0)
(2.10856 0.0628949 0)
(2.13392 0.0536865 0)
(2.15534 0.0383516 0)
(2.17663 0.035247 0)
(2.19288 0.0463669 0)
(2.19843 0.0626312 0)
(2.20629 0.0692385 0)
(2.22679 0.0669856 0)
(2.2494 0.0602292 0)
(2.27597 0.0553639 0)
(2.29897 0.0554223 0)
(2.31974 0.0577106 0)
(2.33955 0.0616021 0)
(2.35935 0.0657428 0)
(2.3731 0.0729832 0)
(2.37134 0.0826717 0)
(2.36944 0.0835746 0)
(2.3849 0.0786609 0)
(2.40372 0.0772236 0)
(2.42188 0.0766978 0)
(2.44083 0.074811 0)
(2.46023 0.0714178 0)
(2.47879 0.0692163 0)
(2.50007 0.0691762 0)
(2.51921 0.0729701 0)
(2.52636 0.0851421 0)
(2.51927 0.100073 0)
(2.51597 0.102071 0)
(2.52588 0.0915507 0)
(2.54168 0.0798447 0)
(2.55912 0.0748123 0)
(2.57765 0.0718125 0)
(2.60141 0.0699233 0)
(2.62287 0.0726907 0)
(2.65431 0.0745859 0)
(1.54786 0.906755 0)
(1.74327 0.849519 0)
(1.92361 0.757341 0)
(2.07112 0.663322 0)