/*--------------------------------*- C++ -*----------------------------------*\
  =========                 |
  \\      /  F ield         | OpenFOAM: The Open Source CFD Toolbox
   \\    /   O peration     | Website:  https://openfoam.org
    \\  /    A nd           | Version:  7
     \\/     M anipulation  |
\*---------------------------------------------------------------------------*/
FoamFile
{
    version     2.0;
    format      ascii;
    class       volScalarField;
    location    "3.9";
    object      rho;
}
// * * * * * * * * * * * * * * * * * * * * * * * * * * * * * * * * * * * * * //

dimensions      [1 -3 0 0 0 0 0];

internalField   nonuniform List<scalar> 
64512
(
1.40001
1.40001
1.40001
1.40001
1.40001
1.40001
1.40001
1.40001
1.40001
1.40001
1.40001
1.40001
1.40001
1.40001
1.40001
1.40001
1.40001
1.40001
1.40001
1.40001
1.40001
1.40001
1.40001
1.40001
1.40001
1.40001
1.40001
1.40001
1.40001
1.40001
1.40001
1.40001
1.40001
1.40001
1.40001
1.40001
1.40001
1.40001
1.40001
1.40001
1.40001
1.40001
1.40001
1.40001
1.40001
1.40001
1.40001
1.40001
1.46669
4.18764
5.43768
5.44626
5.46081
5.479
5.49866
5.51944
5.54048
5.56127
5.58151
5.60094
5.61926
5.63632
5.65238
5.66827
5.68493
5.7027
5.72138
5.74068
5.76006
5.77839
5.79492
5.80985
5.82368
5.83655
5.84846
5.85982
5.87121
5.88297
5.89522
5.90777
5.92013
5.93178
5.94255
5.95262
5.96219
5.97123
5.9795
5.98681
5.99322
5.99883
6.00337
6.00591
6.00599
6.00369
6.00024
5.99871
1.40001
1.40001
1.40001
1.40001
1.40001
1.40001
1.40001
1.40001
1.40001
1.40001
1.40001
1.40001
1.40001
1.40001
1.40001
1.40001
1.40001
1.40001
1.40001
1.40001
1.40001
1.40001
1.40001
1.40001
1.40001
1.40001
1.40001
1.40001
1.40001
1.40001
1.40001
1.40001
1.40001
1.40001
1.40001
1.40001
1.40001
1.40001
1.40001
1.40001
1.40001
1.40001
1.40001
1.40001
1.40001
1.40001
1.40001
1.40001
1.46356
4.17121
5.42553
5.44021
5.45803
5.47816
5.4991
5.52048
5.54162
5.56219
5.58214
5.60139
5.61971
5.63689
5.6531
5.66909
5.68558
5.70296
5.72116
5.73991
5.75885
5.77692
5.79348
5.80865
5.82279
5.83585
5.84778
5.85904
5.87033
5.88205
5.89436
5.907
5.91941
5.93108
5.9418
5.95174
5.96112
5.96996
5.97813
5.9855
5.99204
5.99773
6.00219
6.00456
6.00456
6.00238
5.99922
5.99792
1.40001
1.40001
1.40001
1.40001
1.40001
1.40001
1.40001
1.40001
1.40001
1.40001
1.40001
1.40001
1.40001
1.40001
1.40001
1.40001
1.40001
1.40001
1.40001
1.40001
1.40001
1.40001
1.40001
1.40001
1.40001
1.40001
1.40001
1.40001
1.40001
1.40001
1.40001
1.40001
1.40001
1.40001
1.40001
1.40001
1.40001
1.40001
1.40001
1.40001
1.40001
1.40001
1.40001
1.40001
1.40001
1.40001
1.40001
1.40001
1.45283
4.14618
5.41319
5.43187
5.4526
5.47421
5.49662
5.51893
5.54064
5.5614
5.58126
5.60036
5.61871
5.63624
5.653
5.66942
5.68598
5.70308
5.72076
5.73882
5.75714
5.77477
5.7913
5.80675
5.82135
5.83478
5.84684
5.858
5.86909
5.88067
5.89296
5.90568
5.91823
5.92997
5.94068
5.95047
5.95955
5.96806
5.97604
5.98344
5.99018
5.99597
6.00029
6.00238
6.00222
6.00022
5.99754
5.99667
1.40001
1.40001
1.40001
1.40001
1.40001
1.40001
1.40001
1.40001
1.40001
1.40001
1.40001
1.40001
1.40001
1.40001
1.40001
1.40001
1.40001
1.40001
1.40001
1.40001
1.40001
1.40001
1.40001
1.40001
1.40001
1.40001
1.40001
1.40001
1.40001
1.40001
1.40001
1.40001
1.40001
1.40001
1.40001
1.40001
1.40001
1.40001
1.40001
1.40001
1.40001
1.40001
1.40001
1.40001
1.40001
1.40001
1.40001
1.40001
1.42581
4.10604
5.40618
5.42584
5.44772
5.47056
5.49403
5.51724
5.53938
5.56016
5.57983
5.59878
5.61723
5.63519
5.6526
5.66943
5.68601
5.70268
5.71962
5.73679
5.75439
5.77155
5.78808
5.80387
5.819
5.83285
5.8451
5.85622
5.86715
5.87859
5.89085
5.90367
5.91638
5.92825
5.93895
5.94851
5.95717
5.96525
5.973
5.98048
5.98744
5.99331
5.9974
5.99913
5.9988
5.99707
5.99501
5.99465
1.40001
1.40001
1.40001
1.40001
1.40001
1.40001
1.40001
1.40001
1.40001
1.40001
1.40001
1.40001
1.40001
1.40001
1.40001
1.40001
1.40001
1.40001
1.40001
1.40001
1.40001
1.40001
1.40001
1.40001
1.40001
1.40001
1.40001
1.40001
1.40001
1.40001
1.40001
1.40001
1.40001
1.40001
1.40001
1.40001
1.40001
1.40001
1.40001
1.40001
1.40001
1.40001
1.40001
1.40001
1.40001
1.40001
1.40001
1.40001
1.4018
4.04725
5.40504
5.42344
5.44408
5.46702
5.49091
5.51468
5.53733
5.55858
5.57856
5.59774
5.61645
5.6347
5.65256
5.66982
5.68653
5.70287
5.71905
5.7352
5.75187
5.76829
5.78456
5.80041
5.81577
5.82983
5.8422
5.8533
5.86408
5.87535
5.88753
5.90045
5.91339
5.92552
5.93631
5.94568
5.95393
5.96159
5.96915
5.97675
5.98394
5.98985
5.99364
5.99502
5.99455
5.99319
5.9918
5.99193
1.40001
1.40001
1.40001
1.40001
1.40001
1.40001
1.40001
1.40001
1.40001
1.40001
1.40001
1.40001
1.40001
1.40001
1.40001
1.40001
1.40001
1.40001
1.40001
1.40001
1.40001
1.40001
1.40001
1.40001
1.40001
1.40001
1.40001
1.40001
1.40001
1.40001
1.40001
1.40001
1.40001
1.40001
1.40001
1.40001
1.40001
1.40001
1.40001
1.40001
1.40001
1.40001
1.40001
1.40001
1.40001
1.40001
1.40001
1.40001
1.40004
3.95759
5.39444
5.41953
5.43998
5.46356
5.4881
5.51232
5.53497
5.55581
5.57532
5.59426
5.61296
5.63132
5.64952
5.66731
5.68439
5.70076
5.71669
5.73228
5.74837
5.76429
5.78038
5.79627
5.81178
5.82598
5.83846
5.84959
5.86028
5.87141
5.88351
5.89653
5.90972
5.92213
5.93301
5.94217
5.94999
5.95723
5.96461
5.97227
5.97958
5.98542
5.98894
5.99005
5.98958
5.98864
5.9879
5.98838
1.40001
1.40001
1.40001
1.40001
1.40001
1.40001
1.40001
1.40001
1.40001
1.40001
1.40001
1.40001
1.40001
1.40001
1.40001
1.40001
1.40001
1.40001
1.40001
1.40001
1.40001
1.40001
1.40001
1.40001
1.40001
1.40001
1.40001
1.40001
1.40001
1.40001
1.40001
1.40001
1.40001
1.40001
1.40001
1.40001
1.40001
1.40001
1.40001
1.40001
1.40001
1.40001
1.40001
1.40001
1.40001
1.40001
1.40001
1.40001
1.40001
3.84477
5.38157
5.41797
5.4387
5.46253
5.48642
5.50982
5.53172
5.55189
5.57108
5.59005
5.60909
5.62804
5.64711
5.66569
5.68301
5.69909
5.71446
5.72926
5.74459
5.7599
5.77571
5.79158
5.80719
5.82154
5.83416
5.84534
5.85592
5.86681
5.87871
5.89168
5.90501
5.9176
5.9285
5.93745
5.94491
5.95186
5.95911
5.96678
5.97407
5.97978
5.98316
5.98425
5.98399
5.98357
5.98343
5.98413
1.40001
1.40001
1.40001
1.40001
1.40001
1.40001
1.40001
1.40001
1.40001
1.40001
1.40001
1.40001
1.40001
1.40001
1.40001
1.40001
1.40001
1.40001
1.40001
1.40001
1.40001
1.40001
1.40001
1.40001
1.40001
1.40001
1.40001
1.40001
1.40001
1.40001
1.40001
1.40001
1.40001
1.40001
1.40001
1.40001
1.40001
1.40001
1.40001
1.40001
1.40001
1.40001
1.40001
1.40001
1.40001
1.40001
1.40001
1.40001
1.40001
3.71137
5.3662
5.41584
5.43675
5.46086
5.48406
5.50668
5.52787
5.54744
5.56619
5.58513
5.60451
5.62399
5.64362
5.66259
5.67993
5.69574
5.71077
5.72508
5.73992
5.75483
5.77044
5.78629
5.80194
5.81635
5.82902
5.84018
5.85062
5.86129
5.87304
5.88602
5.89951
5.91225
5.92316
5.93196
5.93922
5.946
5.95313
5.96063
5.96767
5.97314
5.97643
5.97768
5.97776
5.97777
5.978
5.97867
1.40001
1.40001
1.40001
1.40001
1.40001
1.40001
1.40001
1.40001
1.40001
1.40001
1.40001
1.40001
1.40001
1.40001
1.40001
1.40001
1.40001
1.40001
1.40001
1.40001
1.40001
1.40001
1.40001
1.40001
1.40001
1.40001
1.40001
1.40001
1.40001
1.40001
1.40001
1.40001
1.40001
1.40001
1.40001
1.40001
1.40001
1.40001
1.40001
1.40001
1.40001
1.40001
1.40001
1.40001
1.40001
1.40001
1.40001
1.40001
1.40001
3.55854
5.34712
5.41305
5.43403
5.4587
5.48153
5.50345
5.52385
5.54263
5.56081
5.57963
5.59933
5.61938
5.63957
5.65903
5.67652
5.69216
5.70683
5.72058
5.73481
5.74923
5.76449
5.78025
5.79588
5.81036
5.82307
5.83421
5.84449
5.85494
5.8665
5.87942
5.89292
5.90565
5.9165
5.92522
5.93245
5.93922
5.94624
5.95344
5.9601
5.96537
5.96878
5.97045
5.97103
5.97143
5.97177
5.97217
1.40001
1.40001
1.40001
1.40001
1.40001
1.40001
1.40001
1.40001
1.40001
1.40001
1.40001
1.40001
1.40001
1.40001
1.40001
1.40001
1.40001
1.40001
1.40001
1.40001
1.40001
1.40001
1.40001
1.40001
1.40001
1.40001
1.40001
1.40001
1.40001
1.40001
1.40001
1.40001
1.40001
1.40001
1.40001
1.40001
1.40001
1.40001
1.40001
1.40001
1.40001
1.40001
1.40001
1.40001
1.40001
1.40001
1.40001
1.40001
1.40001
3.38619
5.32248
5.41064
5.43171
5.457
5.47961
5.50082
5.5203
5.538
5.55525
5.57359
5.59348
5.61401
5.63471
5.6547
5.67246
5.68797
5.70224
5.71538
5.72891
5.74287
5.75783
5.77359
5.78932
5.80395
5.81673
5.82784
5.83794
5.84814
5.85946
5.87218
5.88551
5.89806
5.90878
5.91749
5.92482
5.93163
5.93844
5.94518
5.9514
5.95654
5.96025
5.96251
5.96368
5.96425
5.96433
5.96433
1.40001
1.40001
1.40001
1.40001
1.40001
1.40001
1.40001
1.40001
1.40001
1.40001
1.40001
1.40001
1.40001
1.40001
1.40001
1.40001
1.40001
1.40001
1.40001
1.40001
1.40001
1.40001
1.40001
1.40001
1.40001
1.40001
1.40001
1.40001
1.40001
1.40001
1.40001
1.40001
1.40001
1.40001
1.40001
1.40001
1.40001
1.40001
1.40001
1.40001
1.40001
1.40001
1.40001
1.40001
1.40001
1.40001
1.40001
1.40001
1.40001
3.19506
5.29069
5.40904
5.43056
5.45638
5.47895
5.49966
5.51829
5.53481
5.55055
5.56773
5.58711
5.60768
5.62871
5.64932
5.66763
5.68328
5.69733
5.70989
5.72257
5.73585
5.75026
5.76588
5.78163
5.79642
5.80933
5.82052
5.83057
5.8406
5.85168
5.86413
5.87717
5.88948
5.9001
5.9089
5.91638
5.92317
5.92964
5.93582
5.94162
5.94677
5.95097
5.95391
5.9556
5.95614
5.9558
5.9553
1.40001
1.40001
1.40001
1.40001
1.40001
1.40001
1.40001
1.40001
1.40001
1.40001
1.40001
1.40001
1.40001
1.40001
1.40001
1.40001
1.40001
1.40001
1.40001
1.40001
1.40001
1.40001
1.40001
1.40001
1.40001
1.40001
1.40001
1.40001
1.40001
1.40001
1.40001
1.40001
1.40001
1.40001
1.40001
1.40001
1.40001
1.40001
1.40001
1.40001
1.40001
1.40001
1.40001
1.40001
1.40001
1.40001
1.40001
1.40001
1.40001
2.98755
5.24944
5.4077
5.43044
5.45676
5.47952
5.5
5.51809
5.53365
5.54785
5.5633
5.58143
5.60142
5.62237
5.64343
5.66244
5.6785
5.69256
5.70467
5.71632
5.72868
5.7422
5.75742
5.77306
5.788
5.8011
5.81246
5.82252
5.83236
5.84308
5.85509
5.86772
5.87979
5.89042
5.89938
5.90697
5.9136
5.9196
5.92525
5.93077
5.93613
5.94093
5.94454
5.94646
5.94672
5.94594
5.94495
1.40001
1.40001
1.40001
1.40001
1.40001
1.40001
1.40001
1.40001
1.40001
1.40001
1.40001
1.40001
1.40001
1.40001
1.40001
1.40001
1.40001
1.40001
1.40001
1.40001
1.40001
1.40001
1.40001
1.40001
1.40001
1.40001
1.40001
1.40001
1.40001
1.40001
1.40001
1.40001
1.40001
1.40001
1.40001
1.40001
1.40001
1.40001
1.40001
1.40001
1.40001
1.40001
1.40001
1.40001
1.40001
1.40001
1.40001
1.40001
1.40001
2.76725
5.19387
5.4064
5.43047
5.45732
5.48028
5.50061
5.51838
5.53341
5.54613
5.55953
5.57574
5.59458
5.61509
5.6365
5.65637
5.67321
5.68779
5.69983
5.71054
5.72179
5.73409
5.74857
5.76392
5.77898
5.79235
5.80397
5.81409
5.82364
5.83379
5.84516
5.8573
5.86917
5.87985
5.88895
5.89649
5.90277
5.90827
5.91352
5.91902
5.92474
5.93014
5.93424
5.93619
5.93606
5.93476
5.93339
1.40001
1.40001
1.40001
1.40001
1.40001
1.40001
1.40001
1.40001
1.40001
1.40001
1.40001
1.40001
1.40001
1.40001
1.40001
1.40001
1.40001
1.40001
1.40001
1.40001
1.40001
1.40001
1.40001
1.40001
1.40001
1.40001
1.40001
1.40001
1.40001
1.40001
1.40001
1.40001
1.40001
1.40001
1.40001
1.40001
1.40001
1.40001
1.40001
1.40001
1.40001
1.40001
1.40001
1.40001
1.40001
1.40001
1.40001
1.40001
1.40001
2.53711
5.11564
5.40648
5.4295
5.45626
5.47924
5.50015
5.51842
5.5338
5.54614
5.55758
5.57128
5.58809
5.60735
5.62849
5.64904
5.66685
5.68238
5.69489
5.70502
5.7152
5.72601
5.73943
5.75428
5.76939
5.78306
5.79503
5.80519
5.81434
5.82374
5.8343
5.8459
5.8576
5.86835
5.87746
5.88476
5.89059
5.89565
5.90076
5.90646
5.91263
5.91844
5.92271
5.92442
5.92383
5.92204
5.92043
1.40001
1.40001
1.40001
1.40001
1.40001
1.40001
1.40001
1.40001
1.40001
1.40001
1.40001
1.40001
1.40001
1.40001
1.40001
1.40001
1.40001
1.40001
1.40001
1.40001
1.40001
1.40001
1.40001
1.40001
1.40001
1.40001
1.40001
1.40001
1.40001
1.40001
1.40001
1.40001
1.40001
1.40001
1.40001
1.40001
1.40001
1.40001
1.40001
1.40001
1.40001
1.40001
1.40001
1.40001
1.40001
1.40001
1.40001
1.40001
1.40001
2.30482
5.00978
5.41443
5.43029
5.45608
5.47829
5.4995
5.51834
5.53429
5.54695
5.55761
5.56924
5.58351
5.60079
5.62095
5.64177
5.66036
5.67683
5.68998
5.69969
5.70869
5.71771
5.72967
5.74379
5.75891
5.77297
5.78541
5.79573
5.80447
5.81304
5.82274
5.83376
5.84524
5.8559
5.86479
5.87166
5.87698
5.88175
5.88695
5.89304
5.89964
5.90561
5.90971
5.91102
5.91004
5.90794
5.90627
1.40001
1.40001
1.40001
1.40001
1.40001
1.40001
1.40001
1.40001
1.40001
1.40001
1.40001
1.40001
1.40001
1.40001
1.40001
1.40001
1.40001
1.40001
1.40001
1.40001
1.40001
1.40001
1.40001
1.40001
1.40001
1.40001
1.40001
1.40001
1.40001
1.40001
1.40001
1.40001
1.40001
1.40001
1.40001
1.40001
1.40001
1.40001
1.40001
1.40001
1.40001
1.40001
1.40001
1.40001
1.40001
1.40001
1.40001
1.40001
1.40001
2.07143
4.8764
5.42631
5.43359
5.45686
5.47683
5.49751
5.51673
5.5339
5.54782
5.55852
5.56907
5.58125
5.59622
5.61459
5.63491
5.65379
5.67088
5.68476
5.69444
5.70252
5.70983
5.72011
5.73317
5.74805
5.76233
5.77512
5.78557
5.79394
5.80169
5.81049
5.82086
5.83194
5.84227
5.85071
5.85706
5.86201
5.86677
5.87229
5.87881
5.88565
5.89145
5.89502
5.89579
5.89448
5.89221
5.89057
1.40001
1.40001
1.40001
1.40001
1.40001
1.40001
1.40001
1.40001
1.40001
1.40001
1.40001
1.40001
1.40001
1.40001
1.40001
1.40001
1.40001
1.40001
1.40001
1.40001
1.40001
1.40001
1.40001
1.40001
1.40001
1.40001
1.40001
1.40001
1.40001
1.40001
1.40001
1.40001
1.40001
1.40001
1.40001
1.40001
1.40001
1.40001
1.40001
1.40001
1.40001
1.40001
1.40001
1.40001
1.40001
1.40001
1.40001
1.40001
1.40001
1.84719
4.7249
5.44897
5.43831
5.45826
5.47535
5.49484
5.51365
5.5313
5.54678
5.55924
5.56984
5.58066
5.59328
5.60923
5.62833
5.64719
5.66467
5.67934
5.68935
5.69682
5.70267
5.71103
5.72261
5.73685
5.75107
5.76404
5.77462
5.78271
5.78973
5.79761
5.80716
5.81756
5.82726
5.83514
5.84105
5.84586
5.8508
5.85668
5.86346
5.87021
5.87555
5.87841
5.87864
5.87718
5.8749
5.87342
1.40001
1.40001
1.40001
1.40001
1.40001
1.40001
1.40001
1.40001
1.40001
1.40001
1.40001
1.40001
1.40001
1.40001
1.40001
1.40001
1.40001
1.40001
1.40001
1.40001
1.40001
1.40001
1.40001
1.40001
1.40001
1.40001
1.40001
1.40001
1.40001
1.40001
1.40001
1.40001
1.40001
1.40001
1.40001
1.40001
1.40001
1.40001
1.40001
1.40001
1.40001
1.40001
1.40001
1.40001
1.40001
1.40001
1.40001
1.40001
1.40001
1.64893
4.52005
5.45371
5.4379
5.45159
5.46645
5.48536
5.50509
5.52467
5.54243
5.55701
5.56881
5.57955
5.59077
5.6045
5.62192
5.64037
5.65791
5.67324
5.68385
5.69108
5.69601
5.70258
5.71245
5.72565
5.73949
5.75236
5.76295
5.77082
5.77715
5.78402
5.79249
5.80192
5.81081
5.81812
5.82379
5.82867
5.83389
5.84004
5.8468
5.85309
5.8577
5.85981
5.85953
5.85789
5.85569
5.85437
1.40001
1.40001
1.40001
1.40001
1.40001
1.40001
1.40001
1.40001
1.40001
1.40001
1.40001
1.40001
1.40001
1.40001
1.40001
1.40001
1.40001
1.40001
1.40001
1.40001
1.40001
1.40001
1.40001
1.40001
1.40001
1.40001
1.40001
1.40001
1.40001
1.40001
1.40001
1.40001
1.40001
1.40001
1.40001
1.40001
1.40001
1.40001
1.40001
1.40001
1.40001
1.40001
1.40001
1.40001
1.40001
1.40001
1.40001
1.40001
1.40001
1.48498
4.277
5.41981
5.42161
5.43633
5.45401
5.47421
5.49409
5.51359
5.53238
5.54925
5.56362
5.57612
5.58745
5.59983
5.61546
5.63303
5.65024
5.66597
5.67731
5.68471
5.68945
5.69466
5.70285
5.7146
5.72768
5.74012
5.75057
5.75822
5.76392
5.76967
5.77682
5.78501
5.79296
5.79976
5.80534
5.81037
5.81578
5.82191
5.82829
5.83384
5.83755
5.83898
5.83833
5.8366
5.83458
5.83345
1.40001
1.40001
1.40001
1.40001
1.40001
1.40001
1.40001
1.40001
1.40001
1.40001
1.40001
1.40001
1.40001
1.40001
1.40001
1.40001
1.40001
1.40001
1.40001
1.40001
1.40001
1.40001
1.40001
1.40001
1.40001
1.40001
1.40001
1.40001
1.40001
1.40001
1.40001
1.40001
1.40001
1.40001
1.40001
1.40001
1.40001
1.40001
1.40001
1.40001
1.40001
1.40001
1.40001
1.40001
1.40001
1.40001
1.40001
1.40001
1.40001
1.40411
3.96797
5.357
5.38825
5.41024
5.43296
5.45583
5.47857
5.5002
5.51993
5.5376
5.55385
5.56852
5.58143
5.59382
5.60812
5.62455
5.6412
5.65708
5.66927
5.67728
5.68252
5.68693
5.69363
5.70361
5.71555
5.72731
5.73743
5.74485
5.74992
5.75444
5.76005
5.7668
5.77378
5.78018
5.78577
5.79095
5.79635
5.80216
5.80783
5.81242
5.81514
5.81587
5.8148
5.81291
5.81096
5.8099
1.40001
1.40001
1.40001
1.40001
1.40001
1.40001
1.40001
1.40001
1.40001
1.40001
1.40001
1.40001
1.40001
1.40001
1.40001
1.40001
1.40001
1.40001
1.40001
1.40001
1.40001
1.40001
1.40001
1.40001
1.40001
1.40001
1.40001
1.40001
1.40001
1.40001
1.40001
1.40001
1.40001
1.40001
1.40001
1.40001
1.40001
1.40001
1.40001
1.40001
1.40001
1.40001
1.40001
1.40001
1.40001
1.40001
1.40001
1.40001
1.40001
1.40003
3.63483
5.28583
5.3548
5.38789
5.41791
5.44234
5.46466
5.48492
5.5036
5.52134
5.53837
5.55508
5.57016
5.58402
5.59851
5.61425
5.63023
5.646
5.65907
5.66808
5.67436
5.67872
5.68442
5.69258
5.70311
5.71396
5.72356
5.7306
5.73499
5.73823
5.74221
5.74752
5.75357
5.75956
5.76506
5.77011
5.77509
5.78012
5.78473
5.7882
5.78995
5.79006
5.78868
5.78667
5.78482
5.78386
1.40001
1.40001
1.40001
1.40001
1.40001
1.40001
1.40001
1.40001
1.40001
1.40001
1.40001
1.40001
1.40001
1.40001
1.40001
1.40001
1.40001
1.40001
1.40001
1.40001
1.40001
1.40001
1.40001
1.40001
1.40001
1.40001
1.40001
1.40001
1.40001
1.40001
1.40001
1.40001
1.40001
1.40001
1.40001
1.40001
1.40001
1.40001
1.40001
1.40001
1.40001
1.40001
1.40001
1.40001
1.40001
1.40001
1.40001
1.40001
1.40001
1.40001
3.26144
5.21433
5.34006
5.37064
5.40075
5.42654
5.45001
5.47151
5.49066
5.50823
5.52469
5.54112
5.55727
5.57203
5.5865
5.60171
5.61713
5.63262
5.64635
5.65652
5.66424
5.66931
5.6746
5.68123
5.69018
5.69989
5.70873
5.71523
5.71892
5.72098
5.72344
5.72736
5.73244
5.73787
5.74297
5.74751
5.7517
5.75565
5.75907
5.76136
5.76226
5.76163
5.75964
5.75722
5.75521
5.75413
1.40001
1.40001
1.40001
1.40001
1.40001
1.40001
1.40001
1.40001
1.40001
1.40001
1.40001
1.40001
1.40001
1.40001
1.40001
1.40001
1.40001
1.40001
1.40001
1.40001
1.40001
1.40001
1.40001
1.40001
1.40001
1.40001
1.40001
1.40001
1.40001
1.40001
1.40001
1.40001
1.40001
1.40001
1.40001
1.40001
1.40001
1.40001
1.40001
1.40001
1.40001
1.40001
1.40001
1.40001
1.40001
1.40001
1.40001
1.40001
1.40001
1.40001
2.86591
5.14127
5.34008
5.37161
5.39748
5.41848
5.43873
5.45809
5.47592
5.49298
5.50917
5.5254
5.54215
5.55774
5.57251
5.58679
5.60151
5.61623
5.63067
5.64207
5.65133
5.65771
5.66326
5.66897
5.67645
5.68493
5.69288
5.69875
5.70178
5.70284
5.70394
5.7065
5.71048
5.71501
5.71924
5.72278
5.72572
5.72823
5.73014
5.73108
5.73098
5.72955
5.72707
5.72426
5.7221
5.72097
1.40001
1.40001
1.40001
1.40001
1.40001
1.40001
1.40001
1.40001
1.40001
1.40001
1.40001
1.40001
1.40001
1.40001
1.40001
1.40001
1.40001
1.40001
1.40001
1.40001
1.40001
1.40001
1.40001
1.40001
1.40001
1.40001
1.40001
1.40001
1.40001
1.40001
1.40001
1.40001
1.40001
1.40001
1.40001
1.40001
1.40001
1.40001
1.40001
1.40001
1.40001
1.40001
1.40001
1.40001
1.40001
1.40001
1.40001
1.40001
1.40001
1.40001
2.4682
5.02432
5.37761
5.38234
5.39804
5.41487
5.43366
5.45138
5.46702
5.48115
5.49495
5.5095
5.52556
5.54165
5.55654
5.57103
5.58454
5.59874
5.61238
5.62467
5.6353
5.64325
5.6496
5.65513
5.66151
5.66881
5.67583
5.68104
5.68349
5.68377
5.68367
5.68485
5.68746
5.6906
5.69344
5.69553
5.69691
5.69779
5.69821
5.69791
5.6966
5.69403
5.69053
5.68678
5.6839
5.68223
1.40001
1.40001
1.40001
1.40001
1.40001
1.40001
1.40001
1.40001
1.40001
1.40001
1.40001
1.40001
1.40001
1.40001
1.40001
1.40001
1.40001
1.40001
1.40001
1.40001
1.40001
1.40001
1.40001
1.40001
1.40001
1.40001
1.40001
1.40001
1.40001
1.40001
1.40001
1.40001
1.40001
1.40001
1.40001
1.40001
1.40001
1.40001
1.40001
1.40001
1.40001
1.40001
1.40001
1.40001
1.40001
1.40001
1.40001
1.40001
1.40001
1.40001
2.0614
4.8486
5.43972
5.41908
5.42391
5.42893
5.43626
5.44679
5.4598
5.47276
5.4851
5.49775
5.51156
5.52592
5.53979
5.55332
5.56658
5.57922
5.59301
5.60528
5.61607
5.62559
5.63298
5.63898
5.64481
5.6512
5.65741
5.66203
5.66404
5.66376
5.66267
5.66235
5.66317
5.6645
5.66541
5.66556
5.66511
5.66414
5.66258
5.66028
5.65719
5.65314
5.6485
5.64396
5.6405
5.6386
1.40001
1.40001
1.40001
1.40001
1.40001
1.40001
1.40001
1.40001
1.40001
1.40001
1.40001
1.40001
1.40001
1.40001
1.40001
1.40001
1.40001
1.40001
1.40001
1.40001
1.40001
1.40001
1.40001
1.40001
1.40001
1.40001
1.40001
1.40001
1.40001
1.40001
1.40001
1.40001
1.40001
1.40001
1.40001
1.40001
1.40001
1.40001
1.40001
1.40001
1.40001
1.40001
1.40001
1.40001
1.40001
1.40001
1.40001
1.40001
1.40001
1.40001
1.67543
4.62414
5.49243
5.43312
5.43209
5.43389
5.44195
5.45222
5.46248
5.47152
5.47986
5.48924
5.50049
5.51281
5.52505
5.53689
5.54863
5.56014
5.57136
5.58446
5.59524
5.60505
5.61323
5.62004
5.62585
5.63167
5.63725
5.64143
5.64331
5.64269
5.64052
5.6385
5.63721
5.63631
5.63487
5.63281
5.63011
5.62685
5.62309
5.61881
5.61381
5.60785
5.60108
5.59429
5.589
5.5857
1.40001
1.40001
1.40001
1.40001
1.40001
1.40001
1.40001
1.40001
1.40001
1.40001
1.40001
1.40001
1.40001
1.40001
1.40001
1.40001
1.40001
1.40001
1.40001
1.40001
1.40001
1.40001
1.40001
1.40001
1.40001
1.40001
1.40001
1.40001
1.40001
1.40001
1.40001
1.40001
1.40001
1.40001
1.40001
1.40001
1.40001
1.40001
1.40001
1.40001
1.40001
1.40001
1.40001
1.40001
1.40001
1.40001
1.40001
1.40001
1.40001
1.40001
1.42032
4.24221
5.43287
5.40331
5.42055
5.43387
5.44411
5.45475
5.46557
5.4742
5.48053
5.48658
5.49393
5.50252
5.51222
5.52235
5.53235
5.54219
5.55198
5.56201
5.57309
5.5827
5.59092
5.59819
5.60431
5.6099
5.61512
5.61906
5.62095
5.62014
5.61705
5.61314
5.60953
5.60603
5.60173
5.59709
5.59182
5.5859
5.57929
5.57189
5.56345
5.55404
5.54424
5.53518
5.52851
5.52504
1.40001
1.40001
1.40001
1.40001
1.40001
1.40001
1.40001
1.40001
1.40001
1.40001
1.40001
1.40001
1.40001
1.40001
1.40001
1.40001
1.40001
1.40001
1.40001
1.40001
1.40001
1.40001
1.40001
1.40001
1.40001
1.40001
1.40001
1.40001
1.40001
1.40001
1.40001
1.40001
1.40001
1.40001
1.40001
1.40001
1.40001
1.40001
1.40001
1.40001
1.40001
1.40001
1.40001
1.40001
1.40001
1.40001
1.40001
1.40001
1.40001
1.40001
1.40008
3.73479
5.28909
5.35044
5.38568
5.41222
5.43408
5.45006
5.46252
5.47217
5.48055
5.48637
5.49119
5.49662
5.50328
5.51067
5.51819
5.52585
5.53374
5.54206
5.55124
5.55971
5.56716
5.57415
5.58042
5.5858
5.59072
5.59447
5.59641
5.59553
5.59169
5.58597
5.57982
5.57334
5.56595
5.5583
5.54996
5.54076
5.53054
5.51937
5.50722
5.49413
5.48018
5.46579
5.45372
5.44575
1.40001
1.40001
1.40001
1.40001
1.40001
1.40001
1.40001
1.40001
1.40001
1.40001
1.40001
1.40001
1.40001
1.40001
1.40001
1.40001
1.40001
1.40001
1.40001
1.40001
1.40001
1.40001
1.40001
1.40001
1.40001
1.40001
1.40001
1.40001
1.40001
1.40001
1.40001
1.40001
1.40001
1.40001
1.40001
1.40001
1.40001
1.40001
1.40001
1.40001
1.40001
1.40001
1.40001
1.40001
1.40001
1.40001
1.40001
1.40001
1.40001
1.40001
1.4
3.25122
5.17795
5.30369
5.35642
5.39211
5.41432
5.43375
5.45158
5.46626
5.47567
5.48285
5.48825
5.49271
5.49734
5.50234
5.50727
5.51219
5.5175
5.5233
5.53035
5.53757
5.54368
5.54919
5.55467
5.5598
5.56425
5.56765
5.56948
5.56854
5.56415
5.55685
5.54814
5.53838
5.52767
5.51655
5.50456
5.4914
5.47675
5.46051
5.44216
5.42124
5.39844
5.3763
5.35874
5.35108
1.40001
1.40001
1.40001
1.40001
1.40001
1.40001
1.40001
1.40001
1.40001
1.40001
1.40001
1.40001
1.40001
1.40001
1.40001
1.40001
1.40001
1.40001
1.40001
1.40001
1.40001
1.40001
1.40001
1.40001
1.40001
1.40001
1.40001
1.40001
1.40001
1.40001
1.40001
1.40001
1.40001
1.40001
1.40001
1.40001
1.40001
1.40001
1.40001
1.40001
1.40001
1.40001
1.40001
1.40001
1.40001
1.40001
1.40001
1.40001
1.40001
1.40001
1.4
2.75625
5.01757
5.29661
5.3404
5.36977
5.39491
5.41574
5.4335
5.44841
5.46194
5.47271
5.48042
5.48658
5.49169
5.49582
5.49893
5.50133
5.50381
5.50679
5.51103
5.51605
5.52064
5.52448
5.5283
5.53236
5.53599
5.53864
5.53989
5.53875
5.53398
5.52544
5.51431
5.50117
5.48683
5.47175
5.4555
5.43753
5.41714
5.39393
5.36749
5.33798
5.30595
5.27294
5.2388
5.21077
1.40001
1.40001
1.40001
1.40001
1.40001
1.40001
1.40001
1.40001
1.40001
1.40001
1.40001
1.40001
1.40001
1.40001
1.40001
1.40001
1.40001
1.40001
1.40001
1.40001
1.40001
1.40001
1.40001
1.40001
1.40001
1.40001
1.40001
1.40001
1.40001
1.40001
1.40001
1.40001
1.40001
1.40001
1.40001
1.40001
1.40001
1.40001
1.40001
1.40001
1.40001
1.40001
1.40001
1.40001
1.40001
1.40001
1.40001
1.40001
1.40001
1.40001
1.40001
2.24737
4.8495
5.3454
5.35192
5.36556
5.38185
5.40052
5.41681
5.43095
5.44437
5.45625
5.46668
5.47553
5.48267
5.48797
5.49108
5.49224
5.49244
5.49272
5.49398
5.49607
5.4983
5.50023
5.50225
5.50427
5.50635
5.50789
5.50838
5.50655
5.50116
5.49159
5.47831
5.46194
5.44369
5.42411
5.40284
5.3791
5.35181
5.32033
5.28357
5.2398
5.18559
5.12112
5.05792
5.01287
1.40001
1.40001
1.40001
1.40001
1.40001
1.40001
1.40001
1.40001
1.40001
1.40001
1.40001
1.40001
1.40001
1.40001
1.40001
1.40001
1.40001
1.40001
1.40001
1.40001
1.40001
1.40001
1.40001
1.40001
1.40001
1.40001
1.40001
1.40001
1.40001
1.40001
1.40001
1.40001
1.40001
1.40001
1.40001
1.40001
1.40001
1.40001
1.40001
1.40001
1.40001
1.40001
1.40001
1.40001
1.40001
1.40001
1.40001
1.40001
1.40001
1.40001
1.40001
1.74526
4.67296
5.43084
5.36965
5.36646
5.37417
5.38673
5.40045
5.41384
5.42693
5.43921
5.44982
5.45925
5.46821
5.47556
5.48029
5.48208
5.48162
5.48019
5.47892
5.47797
5.47723
5.4767
5.4764
5.47598
5.47576
5.4755
5.4746
5.47179
5.46563
5.45505
5.43993
5.42067
5.39839
5.37384
5.34682
5.31641
5.28101
5.23899
5.18767
5.12389
5.04516
4.9494
4.84093
4.76168
1.40001
1.40001
1.40001
1.40001
1.40001
1.40001
1.40001
1.40001
1.40001
1.40001
1.40001
1.40001
1.40001
1.40001
1.40001
1.40001
1.40001
1.40001
1.40001
1.40001
1.40001
1.40001
1.40001
1.40001
1.40001
1.40001
1.40001
1.40001
1.40001
1.40001
1.40001
1.40001
1.40001
1.40001
1.40001
1.40001
1.40001
1.40001
1.40001
1.40001
1.40001
1.40001
1.40001
1.40001
1.40001
1.40001
1.40001
1.40001
1.40001
1.40001
1.40001
1.42939
4.2008
5.40022
5.36346
5.37067
5.37363
5.38236
5.39194
5.40142
5.41154
5.42221
5.43252
5.44183
5.45058
5.45889
5.46549
5.46912
5.46973
5.46805
5.46534
5.46193
5.45819
5.45469
5.45142
5.44829
5.44513
5.44224
5.43929
5.43509
5.42786
5.41617
5.39934
5.37743
5.35118
5.32142
5.28803
5.25004
5.20521
5.15104
5.08374
4.9986
4.88368
4.70977
4.36296
3.45128
1.40001
1.40001
1.40001
1.40001
1.40001
1.40001
1.40001
1.40001
1.40001
1.40001
1.40001
1.40001
1.40001
1.40001
1.40001
1.40001
1.40001
1.40001
1.40001
1.40001
1.40001
1.40001
1.40001
1.40001
1.40001
1.40001
1.40001
1.40001
1.40001
1.40001
1.40001
1.40001
1.40001
1.40001
1.40001
1.40001
1.40001
1.40001
1.40001
1.40001
1.40001
1.40001
1.40001
1.40001
1.40001
1.40001
1.40001
1.40001
1.40001
1.40001
1.40001
1.40005
3.56051
5.22635
5.31138
5.35008
5.36848
5.37828
5.38607
5.3928
5.39975
5.40747
5.41566
5.4237
5.43155
5.43937
5.44661
5.45201
5.45437
5.4539
5.45116
5.44667
5.44067
5.43418
5.42766
5.4214
5.41491
5.40872
5.40286
5.39657
5.38789
5.37493
5.35648
5.33215
5.3022
5.26721
5.22711
5.18091
5.12596
5.0586
4.97324
4.85982
4.70006
4.442
4.02929
3.01217
1.40001
1.40001
1.40001
1.40001
1.40001
1.40001
1.40001
1.40001
1.40001
1.40001
1.40001
1.40001
1.40001
1.40001
1.40001
1.40001
1.40001
1.40001
1.40001
1.40001
1.40001
1.40001
1.40001
1.40001
1.40001
1.40001
1.40001
1.40001
1.40001
1.40001
1.40001
1.40001
1.40001
1.40001
1.40001
1.40001
1.40001
1.40001
1.40001
1.40001
1.40001
1.40001
1.40001
1.40001
1.40001
1.40001
1.40001
1.40001
1.40001
1.40001
1.40001
1.4
2.95893
5.07539
5.29745
5.33667
5.35978
5.37071
5.37678
5.38387
5.39006
5.39582
5.40157
5.40742
5.41329
5.41943
5.42573
5.43153
5.43543
5.43666
5.43502
5.43068
5.42373
5.41507
5.40539
5.39571
5.38604
5.37612
5.36672
5.3574
5.34655
5.33193
5.31175
5.28511
5.25169
5.2117
5.1649
5.11026
5.04483
4.96424
4.86089
4.72466
4.528
4.25649
3.71443
2.87299
1.40001
1.40001
1.40001
1.40001
1.40001
1.40001
1.40001
1.40001
1.40001
1.40001
1.40001
1.40001
1.40001
1.40001
1.40001
1.40001
1.40001
1.40001
1.40001
1.40001
1.40001
1.40001
1.40001
1.40001
1.40001
1.40001
1.40001
1.40001
1.40001
1.40001
1.40001
1.40001
1.40001
1.40001
1.40001
1.40001
1.40001
1.40001
1.40001
1.40001
1.40001
1.40001
1.40001
1.40001
1.40001
1.40001
1.40001
1.40001
1.40001
1.40001
1.40001
1.4
2.35597
4.87482
5.3239
5.33807
5.34957
5.35836
5.36721
5.37508
5.38173
5.3869
5.39084
5.39414
5.3972
5.40057
5.40462
5.40936
5.41352
5.41584
5.41559
5.41219
5.40566
5.39613
5.38428
5.37148
5.35859
5.34499
5.33152
5.31824
5.30417
5.28727
5.26519
5.2364
5.19988
5.15538
5.10232
5.03967
4.9641
4.87163
4.75233
4.59848
4.37944
4.07258
3.53974
2.85686
1.40001
1.40001
1.40001
1.40001
1.40001
1.40001
1.40001
1.40001
1.40001
1.40001
1.40001
1.40001
1.40001
1.40001
1.40001
1.40001
1.40001
1.40001
1.40001
1.40001
1.40001
1.40001
1.40001
1.40001
1.40001
1.40001
1.40001
1.40001
1.40001
1.40001
1.40001
1.40001
1.40001
1.40001
1.40001
1.40001
1.40001
1.40001
1.40001
1.40001
1.40001
1.40001
1.40001
1.40001
1.40001
1.40001
1.40001
1.40001
1.40001
1.40001
1.40001
1.4
1.77813
4.68328
5.39255
5.34098
5.33495
5.34474
5.35543
5.36442
5.37179
5.37725
5.38072
5.3826
5.38346
5.38405
5.38518
5.38769
5.39077
5.3932
5.39353
5.39099
5.38542
5.37604
5.36332
5.34822
5.33227
5.31551
5.29793
5.2803
5.26217
5.24206
5.21754
5.18651
5.14713
5.09869
5.04005
4.97031
4.88583
4.78304
4.65195
4.48253
4.25466
3.93219
3.45484
2.91316
1.40001
1.40001
1.40001
1.40001
1.40001
1.40001
1.40001
1.40001
1.40001
1.40001
1.40001
1.40001
1.40001
1.40001
1.40001
1.40001
1.40001
1.40001
1.40001
1.40001
1.40001
1.40001
1.40001
1.40001
1.40001
1.40001
1.40001
1.40001
1.40001
1.40001
1.40001
1.40001
1.40001
1.40001
1.40001
1.40001
1.40001
1.40001
1.40001
1.40001
1.40001
1.40001
1.40001
1.40001
1.40001
1.40001
1.40001
1.40001
1.40001
1.40001
1.40001
1.40001
1.43332
4.14455
5.3495
5.32083
5.32379
5.334
5.344
5.35239
5.35979
5.36576
5.36967
5.37142
5.37127
5.36985
5.36823
5.36774
5.36854
5.36976
5.36956
5.36713
5.36217
5.35337
5.34095
5.32498
5.30694
5.28753
5.26631
5.24426
5.22144
5.19713
5.16925
5.13567
5.09371
5.0421
4.97887
4.90327
4.8117
4.70051
4.56158
4.38314
4.1504
3.83808
3.42795
2.98102
1.40001
1.40001
1.40001
1.40001
1.40001
1.40001
1.40001
1.40001
1.40001
1.40001
1.40001
1.40001
1.40001
1.40001
1.40001
1.40001
1.40001
1.40001
1.40001
1.40001
1.40001
1.40001
1.40001
1.40001
1.40001
1.40001
1.40001
1.40001
1.40001
1.40001
1.40001
1.40001
1.40001
1.40001
1.40001
1.40001
1.40001
1.40001
1.40001
1.40001
1.40001
1.40001