/*--------------------------------*- C++ -*----------------------------------*\
  =========                 |
  \\      /  F ield         | OpenFOAM: The Open Source CFD Toolbox
   \\    /   O peration     | Website:  https://openfoam.org
    \\  /    A nd           | Version:  7
     \\/     M anipulation  |
\*---------------------------------------------------------------------------*/
FoamFile
{
    version     2.0;
    format      ascii;
    class       volVectorField;
    location    "3.9";
    object      U;
}
// * * * * * * * * * * * * * * * * * * * * * * * * * * * * * * * * * * * * * //

dimensions      [0 1 -1 0 0 0 0];

internalField   nonuniform List<vector> 
64512
(
(3 2.28751e-16 0)
(3 2.13432e-16 0)
(3 3.5858e-16 0)
(3 2.3142e-16 0)
(3 4.57307e-16 0)
(3 4.07795e-16 0)
(3 3.53206e-16 0)
(3 2.38049e-16 0)
(3 3.18096e-16 0)
(3 4.69249e-16 0)
(3 4.35544e-16 0)
(3 1.58252e-16 0)
(3 -2.11913e-16 0)
(3 -4.1488e-16 0)
(3 -7.73162e-16 0)
(3 -1.29362e-15 0)
(3 -7.3303e-16 0)
(3 -1.76393e-16 0)
(3 3.70809e-16 0)
(3 1.93783e-17 0)
(3 5.00248e-17 0)
(3 5.08024e-17 0)
(3 1.10863e-16 0)
(3 3.13395e-18 0)
(3 -1.27173e-16 0)
(3 -5.50857e-16 0)
(3 -8.77789e-16 0)
(3 -6.64858e-16 0)
(3 -3.61342e-16 0)
(3 2.99789e-16 0)
(3 6.43109e-16 0)
(3 7.78438e-16 0)
(3 -4.16413e-17 0)
(3 -3.70867e-16 0)
(3 1.31799e-17 0)
(3 7.23742e-16 0)
(3 1.1841e-16 0)
(3 -3.01614e-16 0)
(3 -3.49618e-16 0)
(3 -5.49643e-16 0)
(3 7.48193e-17 0)
(3 6.25976e-16 0)
(3 8.96371e-16 0)
(3 8.11705e-16 0)
(3 1.17319e-15 0)
(3 4.60387e-16 0)
(3 2.80182e-16 0)
(3 -6.0544e-16 0)
(2.93881 -0.00682733 0)
(1.06657 0.00401702 0)
(0.764678 0.00379534 0)
(0.750115 0.00532319 0)
(0.737531 0.00568012 0)
(0.724602 0.00632479 0)
(0.710897 0.00705936 0)
(0.696088 0.00767233 0)
(0.680348 0.00797817 0)
(0.664083 0.00787842 0)
(0.64776 0.0075086 0)
(0.631621 0.00713628 0)
(0.615705 0.00693307 0)
(0.600006 0.00695366 0)
(0.584506 0.00713518 0)
(0.569139 0.00737635 0)
(0.553768 0.00758715 0)
(0.538278 0.00774363 0)
(0.522556 0.00784051 0)
(0.506555 0.00776945 0)
(0.490496 0.0074444 0)
(0.474573 0.00714965 0)
(0.458525 0.00720941 0)
(0.442147 0.00743717 0)
(0.425879 0.00747957 0)
(0.41029 0.0073782 0)
(0.395326 0.00738055 0)
(0.380455 0.00750428 0)
(0.365129 0.00764529 0)
(0.349049 0.00777712 0)
(0.332165 0.0079266 0)
(0.314687 0.00809417 0)
(0.297008 0.00825129 0)
(0.279492 0.0083894 0)
(0.262301 0.00851734 0)
(0.245377 0.00863399 0)
(0.228495 0.0087385 0)
(0.211356 0.00884145 0)
(0.193693 0.00895811 0)
(0.175369 0.00910766 0)
(0.156358 0.0093011 0)
(0.136643 0.00953693 0)
(0.11618 0.00980138 0)
(0.0950182 0.0100822 0)
(0.0732585 0.0103673 0)
(0.0516266 0.0106553 0)
(0.0303166 0.0107747 0)
(0.0100171 0.0109071 0)
(3 2.72652e-17 0)
(3 -7.60747e-18 0)
(3 -5.25607e-17 0)
(3 6.65755e-17 0)
(3 1.71145e-16 0)
(3 2.49351e-16 0)
(3 1.81777e-16 0)
(3 -1.04557e-16 0)
(3 2.01584e-16 0)
(3 1.41177e-16 0)
(3 -9.80159e-17 0)
(3 4.9652e-17 0)
(3 -2.28169e-16 0)
(3 -1.37866e-15 0)
(3 -2.49835e-15 0)
(3 -2.86473e-15 0)
(3 -2.38197e-15 0)
(3 -1.49938e-15 0)
(3 6.98654e-17 0)
(3 5.19764e-16 0)
(3 1.11951e-15 0)
(3 1.20828e-15 0)
(3 8.55548e-16 0)
(3 6.94762e-16 0)
(3 5.06389e-17 0)
(3 -7.33035e-16 0)
(3 -5.71092e-16 0)
(3 -1.77096e-16 0)
(3 1.20142e-16 0)
(3 7.05152e-16 0)
(3 1.1044e-15 0)
(3 7.65027e-16 0)
(3 -1.71704e-16 0)
(3 -6.55665e-16 0)
(3 -3.80968e-16 0)
(3 3.12552e-16 0)
(3 1.11041e-16 0)
(3 -1.01345e-15 0)
(3 -1.99553e-15 0)
(3 -1.89852e-15 0)
(3 -8.054e-16 0)
(3 1.60358e-16 0)
(3 1.282e-15 0)
(3 1.45654e-15 0)
(3 1.34052e-15 0)
(3 -5.55321e-17 0)
(3 -1.12871e-15 0)
(3 -1.73653e-15 0)
(2.9465 -0.0154937 0)
(1.0635 0.0161998 0)
(0.760329 0.0137989 0)
(0.744546 0.0158182 0)
(0.730726 0.015574 0)
(0.716652 0.0160922 0)
(0.702332 0.0174502 0)
(0.687685 0.0190183 0)
(0.672802 0.0201718 0)
(0.657708 0.020578 0)
(0.642343 0.0203277 0)
(0.626653 0.0198277 0)
(0.610736 0.0194498 0)
(0.594887 0.0193726 0)
(0.579431 0.0196878 0)
(0.564464 0.0203188 0)
(0.549788 0.0211685 0)
(0.53505 0.0220593 0)
(0.519924 0.0228245 0)
(0.50426 0.0230271 0)
(0.488333 0.0223261 0)
(0.472434 0.0215574 0)
(0.456417 0.021728 0)
(0.440127 0.0223892 0)
(0.423905 0.0225187 0)
(0.408242 0.0222433 0)
(0.393062 0.0222518 0)
(0.377911 0.0225876 0)
(0.362327 0.0229436 0)
(0.346067 0.0232573 0)
(0.329099 0.023636 0)
(0.311609 0.0240991 0)
(0.293955 0.0245616 0)
(0.276477 0.0249895 0)
(0.259336 0.0254042 0)
(0.242474 0.0258007 0)
(0.225682 0.026168 0)
(0.208682 0.0265245 0)
(0.191227 0.0269014 0)
(0.173183 0.0273524 0)
(0.154502 0.0279229 0)
(0.135139 0.0286288 0)
(0.11504 0.0294405 0)
(0.0942504 0.0303234 0)
(0.0728551 0.0312253 0)
(0.0515235 0.0321343 0)
(0.0303933 0.0325358 0)
(0.0101115 0.0330443 0)
(3 -1.41116e-16 0)
(3 -3.95764e-16 0)
(3 -3.63228e-16 0)
(3 1.37009e-17 0)
(3 -1.81882e-16 0)
(3 5.90151e-17 0)
(3 2.2392e-16 0)
(3 1.11165e-16 0)
(3 6.71353e-17 0)
(3 -1.02001e-16 0)
(3 -9.31608e-16 0)
(3 -8.08996e-16 0)
(3 -8.64069e-16 0)
(3 -1.29937e-15 0)
(3 -1.97912e-15 0)
(3 -1.92797e-15 0)
(3 -1.88969e-15 0)
(3 -1.55941e-15 0)
(3 -3.29591e-16 0)
(3 1.15845e-15 0)
(3 1.78421e-15 0)
(3 1.60476e-15 0)
(3 1.21046e-15 0)
(3 7.73363e-16 0)
(3 3.5001e-16 0)
(3 -1.25762e-16 0)
(3 -2.08864e-16 0)
(3 -4.23782e-16 0)
(3 -8.2502e-16 0)
(3 -6.81575e-16 0)
(3 8.38897e-17 0)
(3 1.44967e-16 0)
(3 -7.94437e-18 0)
(3 -6.07444e-16 0)
(3 -7.69303e-16 0)
(3 -9.29494e-16 0)
(3 -1.98856e-16 0)
(3 1.28351e-16 0)
(3 -4.03305e-16 0)
(3 -1.85817e-16 0)
(3 -2.55987e-16 0)
(3 1.35359e-16 0)
(3 7.6901e-16 0)
(3 1.28229e-15 0)
(3 1.91738e-15 0)
(3 6.20419e-16 0)
(3 -5.0701e-17 0)
(3 -5.29223e-16 0)
(2.95553 -0.0103098 0)
(1.06542 0.0299474 0)
(0.757833 0.0235597 0)
(0.741615 0.0276742 0)
(0.726158 0.0279095 0)
(0.710545 0.0287539 0)
(0.695154 0.0298956 0)
(0.680485 0.0311745 0)
(0.666519 0.0322741 0)
(0.652801 0.0329152 0)
(0.638718 0.033102 0)
(0.623838 0.03308 0)
(0.60814 0.0330223 0)
(0.592088 0.0329414 0)
(0.576392 0.0329839 0)
(0.56148 0.0334503 0)
(0.547241 0.0344446 0)
(0.533163 0.0358245 0)
(0.518706 0.0372379 0)
(0.50354 0.0378435 0)
(0.487926 0.0369623 0)
(0.472199 0.0358893 0)
(0.456311 0.0362789 0)
(0.440177 0.0374581 0)
(0.424022 0.0377788 0)
(0.408257 0.0374341 0)
(0.392763 0.0375203 0)
(0.377153 0.0380983 0)
(0.36106 0.0386676 0)
(0.344333 0.0391303 0)
(0.326988 0.0396765 0)
(0.309211 0.0403542 0)
(0.291326 0.0410342 0)
(0.273644 0.0416646 0)
(0.256313 0.0422826 0)
(0.239275 0.0428775 0)
(0.222334 0.0434272 0)
(0.205245 0.0439622 0)
(0.1878 0.0445352 0)
(0.169886 0.0452311 0)
(0.15145 0.0461206 0)
(0.132426 0.0472342 0)
(0.112742 0.0485417 0)
(0.0924303 0.0500144 0)
(0.071558 0.0515707 0)
(0.0507375 0.0531855 0)
(0.0300308 0.0539871 0)
(0.0100709 0.0549888 0)
(3 6.09788e-17 0)
(3 -9.74504e-18 0)
(3 2.88936e-16 0)
(3 -4.66326e-17 0)
(3 5.58608e-18 0)
(3 -3.2344e-16 0)
(3 -3.72438e-16 0)
(3 -1.95044e-17 0)
(3 4.04679e-17 0)
(3 2.94345e-16 0)
(3 2.32591e-16 0)
(3 -7.55338e-16 0)
(3 -1.34129e-15 0)
(3 -1.16128e-15 0)
(3 -1.20238e-15 0)
(3 -1.06118e-15 0)
(3 -9.99369e-16 0)
(3 -5.51586e-16 0)
(3 1.18641e-15 0)
(3 1.82321e-15 0)
(3 1.31464e-15 0)
(3 3.8054e-16 0)
(3 2.36935e-16 0)
(3 -2.72641e-16 0)
(3 -3.14905e-16 0)
(3 -8.08957e-17 0)
(3 -2.10655e-16 0)
(3 -1.51297e-15 0)
(3 -2.39013e-15 0)
(3 -1.76628e-15 0)
(3 -1.21371e-15 0)
(3 -2.4341e-16 0)
(3 3.47547e-17 0)
(3 -1.97793e-16 0)
(3 -4.7337e-16 0)
(3 -7.8231e-16 0)
(3 -6.30926e-16 0)
(3 7.45926e-16 0)
(3 1.47814e-15 0)
(3 1.48455e-15 0)
(3 1.70077e-15 0)
(3 1.70277e-15 0)
(3 1.39945e-15 0)
(3 1.34098e-15 0)
(3 1.47381e-15 0)
(3 1.80148e-15 0)
(3 1.67964e-15 0)
(3 8.91706e-16 0)
(2.97394 0.00186548 0)
(1.08379 0.0470326 0)
(0.761738 0.0345976 0)
(0.744372 0.0404706 0)
(0.72738 0.0419758 0)
(0.710416 0.0430434 0)
(0.694215 0.0434161 0)
(0.679538 0.0436266 0)
(0.666264 0.0439564 0)
(0.653529 0.0444623 0)
(0.640318 0.0451227 0)
(0.625929 0.0459271 0)
(0.610247 0.0466613 0)
(0.593837 0.0468759 0)
(0.577717 0.0465614 0)
(0.562587 0.0464609 0)
(0.548401 0.0471945 0)
(0.534601 0.0488006 0)
(0.520517 0.0508045 0)
(0.505639 0.0519284 0)
(0.490214 0.0510573 0)
(0.474621 0.0498339 0)
(0.458877 0.0505301 0)
(0.442946 0.0523154 0)
(0.426879 0.0529753 0)
(0.41103 0.0527341 0)
(0.395248 0.0530531 0)
(0.379191 0.0540019 0)
(0.36255 0.0548834 0)
(0.345248 0.0555492 0)
(0.327365 0.0562677 0)
(0.309108 0.0571301 0)
(0.290792 0.0579838 0)
(0.272708 0.0587718 0)
(0.254982 0.0595508 0)
(0.237544 0.0603041 0)
(0.22021 0.0609896 0)
(0.202777 0.0616433 0)
(0.185083 0.0623344 0)
(0.167039 0.0631728 0)
(0.14859 0.0642522 0)
(0.129662 0.0656275 0)
(0.110205 0.0672905 0)
(0.0902636 0.0692535 0)
(0.0699262 0.0714236 0)
(0.0496875 0.0737724 0)
(0.0295099 0.0750624 0)
(0.00997855 0.0766614 0)
(3 1.53095e-16 0)
(3 2.95962e-16 0)
(3 2.28732e-17 0)
(3 -3.41426e-16 0)
(3 -6.10736e-16 0)
(3 -1.03103e-15 0)
(3 -1.28869e-15 0)
(3 -1.26755e-15 0)
(3 -1.2881e-15 0)
(3 -8.31021e-16 0)
(3 -1.30711e-16 0)
(3 -9.60224e-17 0)
(3 -9.26633e-17 0)
(3 -4.19313e-16 0)
(3 -7.87457e-16 0)
(3 -3.86815e-16 0)
(3 5.94964e-17 0)
(3 3.46731e-16 0)
(3 7.60982e-16 0)
(3 7.50525e-16 0)
(3 1.24655e-15 0)
(3 9.75785e-16 0)
(3 1.86668e-16 0)
(3 -3.12658e-16 0)
(3 -2.64487e-16 0)
(3 -5.26211e-16 0)
(3 -6.97077e-16 0)
(3 -8.67578e-16 0)
(3 -1.09e-15 0)
(3 -8.50771e-16 0)
(3 -9.02794e-16 0)
(3 -9.50829e-16 0)
(3 -1.15572e-15 0)
(3 -1.06001e-15 0)
(3 -1.15829e-15 0)
(3 -8.80472e-16 0)
(3 -1.25867e-15 0)
(3 -1.06733e-15 0)
(3 -3.87868e-16 0)
(3 3.50522e-16 0)
(3 1.11655e-15 0)
(3 1.66012e-15 0)
(3 1.16577e-15 0)
(3 9.69736e-16 0)
(3 5.10823e-16 0)
(3 9.7671e-16 0)
(3 1.76813e-15 0)
(3 1.99482e-15 0)
(2.99851 0.00156877 0)
(1.11439 0.0564516 0)
(0.76746 0.0439787 0)
(0.749665 0.0532006 0)
(0.732331 0.0560898 0)
(0.714984 0.0571156 0)
(0.698546 0.0564122 0)
(0.683749 0.0550548 0)
(0.670398 0.0543204 0)
(0.6577 0.0547213 0)
(0.644658 0.0561668 0)
(0.630435 0.0582939 0)
(0.614738 0.0602572 0)
(0.598046 0.0609738 0)
(0.581488 0.0601997 0)
(0.56588 0.0593141 0)
(0.551207 0.0596341 0)
(0.536966 0.0614324 0)
(0.522484 0.0641153 0)
(0.507121 0.0659133 0)
(0.491161 0.0652159 0)
(0.475083 0.0639268 0)
(0.458979 0.0649463 0)
(0.442882 0.0673813 0)
(0.426672 0.0684747 0)
(0.410693 0.0684071 0)
(0.39481 0.0689566 0)
(0.378723 0.0702335 0)
(0.362132 0.0713838 0)
(0.344962 0.0722224 0)
(0.327266 0.0730965 0)
(0.309204 0.0741379 0)
(0.291029 0.075169 0)
(0.272978 0.0761224 0)
(0.255144 0.0770738 0)
(0.237458 0.0780043 0)
(0.219776 0.0788513 0)
(0.201958 0.0796485 0)
(0.183904 0.080465 0)
(0.165549 0.081411 0)
(0.146834 0.0825832 0)
(0.127708 0.084067 0)
(0.108183 0.0859032 0)
(0.0883684 0.088191 0)
(0.0684083 0.0908537 0)
(0.0486669 0.0938861 0)
(0.028988 0.0956892 0)
(0.00986928 0.0979031 0)
(3 2.68509e-16 0)
(3 3.9854e-16 0)
(3 1.69017e-16 0)
(3 7.70669e-17 0)
(3 -4.131e-16 0)
(3 -8.39237e-16 0)
(3 -1.30096e-15 0)
(3 -1.18934e-15 0)
(3 -1.31575e-15 0)
(3 -1.39059e-15 0)
(3 -1.04958e-15 0)
(3 -1.97272e-16 0)
(3 8.26619e-16 0)
(3 1.32459e-15 0)
(3 1.33824e-15 0)
(3 1.46478e-15 0)
(3 1.65062e-15 0)
(3 1.32956e-15 0)
(3 6.5156e-16 0)
(3 7.11476e-16 0)
(3 1.07001e-15 0)
(3 1.70633e-15 0)
(3 1.83799e-15 0)
(3 1.80135e-15 0)
(3 2.9258e-16 0)
(3 -2.69244e-16 0)
(3 -1.07642e-15 0)
(3 -5.96968e-16 0)
(3 -2.91362e-16 0)
(3 -5.21441e-17 0)
(3 1.90569e-16 0)
(3 -1.00874e-16 0)
(3 -6.12644e-16 0)
(3 -6.92359e-16 0)
(3 -6.22106e-16 0)
(3 -3.1074e-16 0)
(3 -4.95687e-16 0)
(3 -4.91805e-16 0)
(3 -5.96455e-16 0)
(3 -7.24772e-16 0)
(3 -9.33411e-16 0)
(3 -4.48304e-16 0)
(3 1.52323e-16 0)
(3 5.42936e-16 0)
(3 6.95464e-16 0)
(3 9.86346e-16 0)
(3 1.37196e-15 0)
(3 1.46205e-15 0)
(3.00001 8.51817e-06 0)
(1.14992 0.0702158 0)
(0.767174 0.0551685 0)
(0.749488 0.0662463 0)
(0.73373 0.0703119 0)
(0.717419 0.0711572 0)
(0.701472 0.0696062 0)
(0.686336 0.067199 0)
(0.671965 0.0658147 0)
(0.658016 0.0661798 0)
(0.643926 0.0682412 0)
(0.629094 0.0714268 0)
(0.613202 0.0744197 0)
(0.596623 0.0756194 0)
(0.580427 0.0744845 0)
(0.565318 0.0727299 0)
(0.551061 0.0724699 0)
(0.537134 0.0743585 0)
(0.52288 0.0776341 0)
(0.507562 0.0800932 0)
(0.491519 0.0795881 0)
(0.47538 0.0781798 0)
(0.459302 0.0793869 0)
(0.443433 0.0823513 0)
(0.427473 0.0838385 0)
(0.411742 0.08393 0)
(0.396101 0.0846776 0)
(0.380253 0.0862414 0)
(0.363869 0.0876374 0)
(0.346864 0.0886543 0)
(0.329279 0.0897247 0)
(0.311267 0.0910235 0)
(0.293059 0.0923354 0)
(0.274869 0.0935558 0)
(0.25678 0.0947619 0)
(0.238733 0.0959349 0)
(0.220628 0.0970003 0)
(0.202391 0.0979935 0)
(0.183954 0.0989766 0)
(0.165243 0.10004 0)
(0.146174 0.101265 0)
(0.126715 0.102763 0)
(0.10696 0.104632 0)
(0.0871126 0.107083 0)
(0.0673647 0.110074 0)
(0.0479816 0.113669 0)
(0.028654 0.115939 0)
(0.00980265 0.118703 0)
(3 -1.42035e-16 0)
(3 -1.6215e-16 0)
(3 4.55557e-16 0)
(3 4.4378e-16 0)
(3 1.28581e-16 0)
(3 5.76687e-17 0)
(3 -3.91765e-16 0)
(3 -4.32673e-16 0)
(3 -9.10256e-18 0)
(3 3.57449e-16 0)
(3 9.51275e-16 0)
(3 1.2313e-15 0)
(3 1.82573e-15 0)
(3 1.53882e-15 0)
(3 1.38318e-15 0)
(3 1.40687e-15 0)
(3 1.36799e-15 0)
(3 1.21326e-15 0)
(3 1.24422e-15 0)
(3 1.21589e-15 0)
(3 9.37399e-16 0)
(3 1.1134e-15 0)
(3 2.18012e-15 0)
(3 2.50009e-15 0)
(3 1.33519e-15 0)
(3 4.42685e-17 0)
(3 -8.1631e-16 0)
(3 -1.00309e-15 0)
(3 -4.22494e-16 0)
(3 2.09196e-16 0)
(3 3.5445e-16 0)
(3 1.42413e-16 0)
(3 2.19443e-16 0)
(3 1.33215e-16 0)
(3 2.57362e-16 0)
(3 1.74144e-16 0)
(3 1.17574e-16 0)
(3 -4.04242e-17 0)
(3 -1.90629e-16 0)
(3 -9.72784e-17 0)
(3 6.60256e-17 0)
(3 -3.75684e-16 0)
(3 -2.26041e-16 0)
(3 -1.27219e-16 0)
(3 2.78649e-16 0)
(3 3.93065e-16 0)
(3 4.06738e-16 0)
(3 -1.11927e-17 0)
(3 1.42466e-08 0)
(1.19832 0.0841857 0)
(0.76924 0.0657516 0)
(0.750231 0.0780336 0)
(0.735278 0.0833143 0)
(0.719144 0.0845295 0)
(0.703039 0.0828907 0)
(0.687447 0.0799541 0)
(0.672601 0.0779616 0)
(0.658338 0.0780686 0)
(0.644221 0.0803924 0)
(0.629688 0.0842647 0)
(0.614256 0.0879989 0)
(0.598071 0.0894596 0)
(0.582119 0.0879405 0)
(0.566979 0.0855118 0)
(0.552404 0.0849272 0)
(0.538084 0.0870915 0)
(0.523549 0.0911069 0)
(0.508027 0.0942847 0)
(0.491853 0.093983 0)
(0.475704 0.0923868 0)
(0.459681 0.0936414 0)
(0.444041 0.0970392 0)
(0.428279 0.0989421 0)
(0.412689 0.0992584 0)
(0.397161 0.100254 0)
(0.381414 0.102146 0)
(0.365099 0.103842 0)
(0.348129 0.105104 0)
(0.330567 0.106441 0)
(0.312583 0.108068 0)
(0.2944 0.109721 0)
(0.276205 0.111241 0)
(0.258057 0.112704 0)
(0.239892 0.114111 0)
(0.221638 0.115397 0)
(0.203252 0.116605 0)
(0.184668 0.11778 0)
(0.165779 0.118977 0)
(0.146473 0.120246 0)
(0.126751 0.12173 0)
(0.106795 0.123573 0)
(0.0869001 0.126102 0)
(0.0672567 0.129304 0)
(0.0480558 0.133342 0)
(0.0288034 0.136003 0)
(0.00989589 0.139224 0)
(3 -2.06227e-16 0)
(3 -5.73697e-16 0)
(3 -4.03778e-16 0)
(3 -4.71971e-17 0)
(3 4.42896e-16 0)
(3 5.66701e-16 0)
(3 1.23005e-15 0)
(3 7.7183e-16 0)
(3 4.1346e-16 0)
(3 7.67749e-16 0)
(3 1.27337e-15 0)
(3 1.32801e-15 0)
(3 1.23118e-15 0)
(3 3.29371e-16 0)
(3 3.43916e-16 0)
(3 4.49416e-16 0)
(3 6.17607e-16 0)
(3 1.1572e-15 0)
(3 1.82145e-15 0)
(3 1.29208e-15 0)
(3 5.48754e-16 0)
(3 9.1917e-18 0)
(3 8.07085e-16 0)
(3 6.26547e-16 0)
(3 8.70121e-16 0)
(3 3.15961e-16 0)
(3 -1.04267e-15 0)
(3 -1.84943e-15 0)
(3 -1.30434e-15 0)
(3 -3.04443e-16 0)
(3 -7.33633e-17 0)
(3 -1.82563e-16 0)
(3 -6.50578e-16 0)
(3 -6.70962e-16 0)
(3 -3.05858e-16 0)
(3 -9.82133e-18 0)
(3 7.03718e-17 0)
(3 -2.77839e-16 0)
(3 -2.46799e-16 0)
(3 2.66691e-16 0)
(3 3.35146e-16 0)
(3 -2.24014e-16 0)
(3 -8.36592e-16 0)
(3 -6.16131e-16 0)
(3 -2.81714e-16 0)
(3 -2.9085e-16 0)
(3 1.71926e-16 0)
(3 -1.09857e-16 0)
(3 -1.15057e-12 0)
(1.26024 0.0987025 0)
(0.772851 0.0770609 0)
(0.750356 0.0898886 0)
(0.735439 0.0961824 0)
(0.719103 0.0978491 0)
(0.702938 0.0962831 0)
(0.687294 0.0928818 0)
(0.672368 0.0902102 0)
(0.657989 0.0900115 0)
(0.643778 0.0924425 0)
(0.629351 0.0968449 0)
(0.614159 0.101208 0)
(0.598134 0.103094 0)
(0.58217 0.101505 0)
(0.566921 0.0986358 0)
(0.552225 0.0977477 0)
(0.537961 0.100086 0)
(0.523753 0.104689 0)
(0.50859 0.108455 0)
(0.492657 0.108336 0)
(0.476643 0.106537 0)
(0.460626 0.107752 0)
(0.445077 0.111519 0)
(0.429383 0.113876 0)
(0.413847 0.114469 0)
(0.398429 0.115728 0)
(0.382855 0.11795 0)
(0.366725 0.119958 0)
(0.349924 0.121482 0)
(0.332512 0.123102 0)
(0.314653 0.125077 0)
(0.296546 0.127097 0)
(0.278349 0.128945 0)
(0.260106 0.130696 0)
(0.24177 0.132379 0)
(0.223303 0.13394 0)
(0.204684 0.135418 0)
(0.18584 0.136828 0)
(0.166638 0.138176 0)
(0.146975 0.139489 0)
(0.126923 0.140951 0)
(0.106761 0.142745 0)
(0.0868411 0.145316 0)
(0.0673179 0.148655 0)
(0.0482823 0.153046 0)
(0.0290478 0.156034 0)
(0.0100007 0.159636 0)
(3 7.08175e-17 0)
(3 3.37404e-17 0)
(3 4.10331e-16 0)
(3 8.00551e-16 0)
(3 1.41765e-15 0)
(3 1.24897e-15 0)
(3 1.62703e-15 0)
(3 1.65225e-15 0)
(3 1.09021e-15 0)
(3 1.04278e-15 0)
(3 8.09379e-16 0)
(3 8.80447e-16 0)
(3 8.10703e-16 0)
(3 4.14189e-16 0)
(3 2.59765e-16 0)
(3 3.26003e-16 0)
(3 9.77315e-16 0)
(3 1.63795e-15 0)
(3 1.33874e-15 0)
(3 9.73564e-16 0)
(3 3.00933e-16 0)
(3 2.65871e-17 0)
(3 4.7049e-18 0)
(3 1.77042e-16 0)
(3 2.53119e-16 0)
(3 -1.58632e-16 0)
(3 -1.07647e-15 0)
(3 -1.26969e-15 0)
(3 4.91208e-17 0)
(3 8.63818e-17 0)
(3 5.81287e-16 0)
(3 3.86037e-16 0)
(3 4.41376e-16 0)
(3 3.76522e-16 0)
(3 1.32707e-16 0)
(3 -8.47253e-16 0)
(3 -1.20856e-15 0)
(3 -1.53573e-15 0)
(3 -1.17515e-15 0)
(3 -6.20402e-16 0)
(3 -1.21679e-15 0)
(3 -1.67091e-15 0)
(3 -1.33222e-15 0)
(3 -1.25426e-15 0)
(3 -1.38773e-15 0)
(3 -1.09371e-15 0)
(3 -4.62287e-16 0)
(3 -4.60062e-17 0)
(3 -2.09023e-13 0)
(1.33741 0.113416 0)
(0.777759 0.0895837 0)
(0.750518 0.102098 0)
(0.73577 0.108987 0)
(0.719438 0.11095 0)
(0.703365 0.109529 0)
(0.687675 0.105839 0)
(0.67264 0.102528 0)
(0.658163 0.101958 0)
(0.643942 0.104501 0)
(0.629589 0.109298 0)
(0.614577 0.114274 0)
(0.598644 0.116602 0)
(0.582626 0.115069 0)
(0.567281 0.111795 0)
(0.552469 0.110509 0)
(0.538206 0.112903 0)
(0.524246 0.118018 0)
(0.509352 0.122406 0)
(0.493529 0.122621 0)
(0.477526 0.120729 0)
(0.46141 0.121872 0)
(0.445867 0.125928 0)
(0.430209 0.12871 0)
(0.414711 0.12956 0)
(0.399386 0.131043 0)
(0.383973 0.133573 0)
(0.368027 0.135918 0)
(0.351413 0.137749 0)
(0.334192 0.139692 0)
(0.316528 0.142048 0)
(0.298588 0.144469 0)
(0.280501 0.14668 0)
(0.26231 0.148761 0)
(0.243984 0.150772 0)
(0.225488 0.152667 0)
(0.206786 0.15447 0)
(0.18777 0.156148 0)
(0.168287 0.157665 0)
(0.148274 0.159035 0)
(0.127894 0.160489 0)
(0.107514 0.162236 0)
(0.0875229 0.164822 0)
(0.068004 0.168209 0)
(0.0489715 0.17285 0)
(0.0295635 0.176096 0)
(0.0101664 0.18 0)
(3 1.1871e-18 0)
(3 2.49607e-16 0)
(3 7.48673e-16 0)
(3 1.49482e-15 0)
(3 1.48503e-15 0)
(3 1.3934e-15 0)
(3 1.35686e-15 0)
(3 1.6689e-15 0)
(3 1.81339e-15 0)
(3 1.12234e-15 0)
(3 1.14087e-15 0)
(3 1.16064e-15 0)
(3 6.59041e-16 0)
(3 2.01028e-16 0)
(3 -3.59767e-16 0)
(3 1.50288e-16 0)
(3 7.85113e-16 0)
(3 1.08043e-15 0)
(3 5.26095e-16 0)
(3 -1.39351e-16 0)
(3 -8.58659e-16 0)
(3 -1.36073e-15 0)
(3 -1.28613e-15 0)
(3 -8.87736e-16 0)
(3 -5.20939e-16 0)
(3 -2.68522e-16 0)
(3 -5.28909e-16 0)
(3 -3.20742e-16 0)
(3 -1.63036e-16 0)
(3 1.79452e-16 0)
(3 3.67507e-16 0)
(3 9.43095e-16 0)
(3 1.22213e-15 0)
(3 1.27968e-15 0)
(3 1.57868e-16 0)
(3 -1.25514e-15 0)
(3 -1.41921e-15 0)
(3 -9.97573e-16 0)
(3 -9.07622e-16 0)
(3 -1.18812e-15 0)
(3 -9.68198e-16 0)
(3 -4.45454e-16 0)
(3 -1.76393e-16 0)
(3 -7.06332e-16 0)
(3 -1.47647e-15 0)
(3 -1.84629e-15 0)
(3 -1.61548e-15 0)
(3 -1.43152e-15 0)
(3 -1.5717e-14 0)
(1.43275 0.128392 0)
(0.784261 0.103536 0)
(0.750714 0.114566 0)
(0.736115 0.121638 0)
(0.719715 0.123849 0)
(0.703546 0.12272 0)
(0.687612 0.118937 0)
(0.672375 0.114945 0)
(0.657837 0.113846 0)
(0.643835 0.116379 0)
(0.629905 0.121595 0)
(0.615334 0.127179 0)
(0.599665 0.130047 0)
(0.583662 0.128735 0)
(0.568223 0.125149 0)
(0.553268 0.123384 0)
(0.538971 0.125673 0)
(0.525292 0.131171 0)
(0.510791 0.136172 0)
(0.49521 0.136848 0)
(0.479339 0.134969 0)
(0.463198 0.136043 0)
(0.447626 0.140337 0)
(0.431894 0.143546 0)
(0.416236 0.144665 0)
(0.400761 0.14635 0)
(0.385266 0.149171 0)
(0.369306 0.151864 0)
(0.352722 0.154017 0)
(0.335575 0.156273 0)
(0.318012 0.15898 0)
(0.300169 0.16178 0)
(0.282161 0.164357 0)
(0.264051 0.1668 0)
(0.245824 0.169197 0)
(0.227422 0.171491 0)
(0.208753 0.173671 0)
(0.189652 0.175655 0)
(0.16996 0.177381 0)
(0.149671 0.178862 0)
(0.129049 0.180372 0)
(0.108518 0.182114 0)
(0.0884641 0.184716 0)
(0.0688898 0.188093 0)
(0.0497215 0.192877 0)
(0.0300809 0.196304 0)
(0.0103245 0.200461 0)
(3 -2.73908e-17 0)
(3 -2.4468e-16 0)
(3 -4.83174e-16 0)
(3 -4.15205e-16 0)
(3 -3.20043e-16 0)
(3 -2.10332e-16 0)
(3 2.2593e-16 0)
(3 8.0853e-16 0)
(3 1.04393e-15 0)
(3 5.57346e-16 0)
(3 5.91306e-16 0)
(3 2.44794e-16 0)
(3 -1.26338e-16 0)
(3 1.7993e-17 0)
(3 1.63687e-16 0)
(3 1.53425e-16 0)
(3 2.4246e-16 0)
(3 4.84565e-16 0)
(3 1.05869e-15 0)
(3 3.16588e-16 0)
(3 -7.37192e-16 0)
(3 -1.36876e-15 0)
(3 -1.78135e-15 0)
(3 -4.84645e-16 0)
(3 -2.72835e-16 0)
(3 2.20298e-16 0)
(3 2.27438e-16 0)
(3 3.03692e-16 0)
(3 -2.59147e-17 0)
(3 1.27755e-17 0)
(3 5.41244e-16 0)
(3 3.6034e-16 0)
(3 1.29427e-16 0)
(3 -2.5067e-16 0)
(3 -1.28238e-15 0)
(3 -1.37776e-15 0)
(3 -3.74887e-17 0)
(3 9.17247e-16 0)
(3 -2.3136e-17 0)
(3 -1.08955e-15 0)
(3 -3.55595e-16 0)
(3 3.3757e-16 0)
(3 2.09388e-16 0)
(3 1.61134e-16 0)
(3 1.09493e-16 0)
(3 -3.32957e-16 0)
(3 -7.50074e-16 0)
(3 -1.08856e-15 0)
(3 -8.37121e-15 0)
(1.54992 0.143067 0)
(0.793194 0.119171 0)
(0.751076 0.127492 0)
(0.736294 0.134306 0)
(0.719823 0.136827 0)
(0.70356 0.136146 0)
(0.687335 0.132425 0)
(0.671705 0.127705 0)
(0.656786 0.125699 0)
(0.642709 0.127925 0)
(0.629114 0.133458 0)
(0.615064 0.139709 0)
(0.599788 0.143282 0)
(0.583922 0.142405 0)
(0.568487 0.138658 0)
(0.553455 0.136348 0)
(0.539094 0.138328 0)
(0.525654 0.144033 0)
(0.511606 0.149613 0)
(0.496394 0.150875 0)
(0.480871 0.149124 0)
(0.465024 0.150155 0)
(0.449784 0.154659 0)
(0.434337 0.158312 0)
(0.418818 0.159727 0)
(0.403423 0.161608 0)
(0.388004 0.16471 0)
(0.372119 0.167774 0)
(0.355578 0.170285 0)
(0.338435 0.172859 0)
(0.320831 0.175893 0)
(0.302904 0.179046 0)
(0.284793 0.181985 0)
(0.266616 0.184807 0)
(0.248382 0.187619 0)
(0.229994 0.190343 0)
(0.211291 0.192925 0)
(0.192054 0.195247 0)
(0.172139 0.197242 0)
(0.151608 0.198926 0)
(0.130788 0.200592 0)
(0.110116 0.202401 0)
(0.0899411 0.205028 0)
(0.0702067 0.20836 0)
(0.0506854 0.213194 0)
(0.0306993 0.216695 0)
(0.0105062 0.221088 0)
(3 1.30595e-17 0)
(3 -1.29737e-16 0)
(3 -5.3254e-16 0)
(3 -1.12797e-15 0)
(3 -1.09274e-15 0)
(3 -1.94037e-16 0)
(3 3.46741e-16 0)
(3 5.01484e-16 0)
(3 7.54976e-16 0)
(3 1.0827e-15 0)
(3 8.61072e-16 0)
(3 3.52402e-16 0)
(3 3.87536e-16 0)
(3 5.42909e-16 0)
(3 8.81608e-16 0)
(3 9.23888e-16 0)
(3 3.1008e-16 0)
(3 1.68195e-16 0)
(3 4.57111e-16 0)
(3 5.01375e-16 0)
(3 5.03139e-16 0)
(3 4.12027e-16 0)
(3 1.30481e-16 0)
(3 6.07742e-16 0)
(3 5.02018e-16 0)
(3 1.83263e-16 0)
(3 1.93959e-16 0)
(3 2.3445e-16 0)
(3 2.63868e-17 0)
(3 -2.28202e-16 0)
(3 -9.08355e-17 0)
(3 -3.8349e-16 0)
(3 -4.71666e-16 0)
(3 -7.124e-16 0)
(3 -7.46505e-16 0)
(3 -1.05656e-15 0)
(3 -3.32178e-16 0)
(3 -1.49623e-17 0)
(3 -1.43137e-16 0)
(3 -2.57115e-16 0)
(3 2.6076e-16 0)
(3 4.54735e-16 0)
(3 6.0822e-16 0)
(3 8.04684e-16 0)
(3 2.99218e-16 0)
(3 -7.02347e-16 0)
(3 -9.7687e-16 0)
(3 -1.36704e-15 0)
(3 -2.31719e-15 0)
(1.69216 0.156115 0)
(0.805656 0.136402 0)
(0.752608 0.141233 0)
(0.737237 0.147155 0)
(0.720906 0.149752 0)
(0.704869 0.149598 0)
(0.688612 0.146352 0)
(0.672652 0.141366 0)
(0.657218 0.138242 0)
(0.642689 0.139745 0)
(0.629036 0.145278 0)
(0.615226 0.1521 0)
(0.600154 0.15646 0)
(0.584246 0.15619 0)
(0.568626 0.152442 0)
(0.553364 0.149571 0)
(0.538712 0.151039 0)
(0.525194 0.156721 0)
(0.511359 0.162771 0)
(0.496354 0.164658 0)
(0.481074 0.163081 0)
(0.465498 0.164049 0)
(0.450614 0.168733 0)
(0.43555 0.172869 0)
(0.420285 0.174642 0)
(0.405112 0.176749 0)
(0.389946 0.180164 0)
(0.374333 0.183667 0)
(0.358027 0.186617 0)
(0.341049 0.189558 0)
(0.323523 0.192933 0)
(0.305594 0.196446 0)
(0.287437 0.19976 0)
(0.269222 0.202977 0)
(0.250976 0.206211 0)
(0.232567 0.209354 0)
(0.21378 0.21232 0)
(0.194387 0.214982 0)
(0.17429 0.217295 0)
(0.153612 0.219273 0)
(0.132697 0.2212 0)
(0.111931 0.223156 0)
(0.0916056 0.225848 0)
(0.0715965 0.229063 0)
(0.051676 0.23389 0)
(0.0312843 0.237376 0)
(0.0106651 0.241972 0)
(3 -8.42724e-17 0)
(3 1.19632e-16 0)
(3 5.58973e-16 0)
(3 5.30806e-16 0)
(3 5.56585e-16 0)
(3 1.11028e-15 0)
(3 1.2065e-15 0)
(3 1.34401e-15 0)
(3 1.12532e-15 0)
(3 9.73165e-16 0)
(3 6.75618e-16 0)
(3 6.42645e-16 0)
(3 8.27169e-16 0)
(3 8.88569e-16 0)
(3 9.77716e-16 0)
(3 4.41963e-16 0)
(3 -1.74106e-17 0)
(3 -9.2765e-16 0)
(3 -9.62182e-16 0)
(3 -9.67848e-17 0)
(3 4.87315e-16 0)
(3 8.2019e-16 0)
(3 1.61214e-15 0)
(3 5.18423e-16 0)
(3 3.33962e-17 0)
(3 -4.22863e-16 0)
(3 1.69184e-16 0)
(3 4.22858e-16 0)
(3 1.19871e-16 0)
(3 2.26211e-17 0)
(3 -9.9102e-16 0)
(3 -9.2395e-16 0)
(3 -1.39334e-15 0)
(3 -1.14353e-15 0)
(3 -8.25141e-16 0)
(3 -9.35541e-16 0)
(3 -1.10632e-15 0)
(3 -1.26271e-15 0)
(3 -6.65676e-16 0)
(3 4.60053e-16 0)
(3 9.98722e-16 0)
(3 9.35073e-16 0)
(3 1.05491e-15 0)
(3 1.35013e-15 0)
(3 7.60883e-16 0)
(3 -9.02097e-16 0)
(3 -9.48407e-16 0)
(3 -1.74948e-15 0)
(3 -5.57661e-15 0)
(1.85993 0.165933 0)
(0.822412 0.154448 0)
(0.755403 0.155949 0)
(0.739315 0.159868 0)
(0.723474 0.16227 0)
(0.708073 0.16265 0)
(0.692215 0.160081 0)
(0.676283 0.155163 0)
(0.660511 0.151222 0)
(0.645415 0.151617 0)
(0.631624 0.156921 0)
(0.618134 0.164229 0)
(0.603389 0.16946 0)
(0.587479 0.17003 0)
(0.571599 0.166543 0)
(0.555995 0.163215 0)
(0.540873 0.164104 0)
(0.526984 0.169601 0)
(0.51309 0.175985 0)
(0.498049 0.178472 0)
(0.482741 0.177054 0)
(0.467166 0.177879 0)
(0.452335 0.182642 0)
(0.437416 0.187223 0)
(0.422212 0.189365 0)
(0.407115 0.191672 0)
(0.392108 0.19537 0)
(0.376741 0.199327 0)
(0.360693 0.202769 0)
(0.343941 0.206133 0)
(0.326581 0.209896 0)
(0.308758 0.21382 0)
(0.290661 0.217571 0)
(0.272478 0.221232 0)
(0.254231 0.224904 0)
(0.235753 0.228456 0)
(0.216812 0.231793 0)
(0.19722 0.234812 0)
(0.176947 0.237508 0)
(0.156153 0.23988 0)
(0.135162 0.242179 0)
(0.114267 0.244369 0)
(0.093697 0.247187 0)
(0.0732117 0.250227 0)
(0.0528126 0.254994 0)
(0.0318953 0.258421 0)
(0.010838 0.263174 0)
(3 4.65684e-17 0)
(3 -8.39536e-17 0)
(3 2.7639e-16 0)
(3 7.5723e-16 0)
(3 4.93066e-16 0)
(3 5.25749e-17 0)
(3 1.00643e-16 0)
(3 4.60361e-16 0)
(3 6.89595e-16 0)
(3 1.25941e-15 0)
(3 1.47659e-15 0)
(3 1.30499e-15 0)
(3 1.63473e-15 0)
(3 1.79819e-15 0)
(3 1.55849e-15 0)
(3 9.0035e-16 0)
(3 3.47696e-16 0)
(3 -1.657e-16 0)
(3 -5.7402e-16 0)
(3 -7.3547e-16 0)
(3 -6.551e-17 0)
(3 9.37939e-16 0)
(3 1.36537e-15 0)
(3 4.54755e-16 0)
(3 3.73423e-16 0)
(3 5.26885e-16 0)
(3 7.43497e-16 0)
(3 8.70996e-16 0)
(3 2.78174e-16 0)
(3 -8.13409e-16 0)
(3 -1.90967e-15 0)
(3 -1.4784e-15 0)
(3 -1.41421e-15 0)
(3 -1.47712e-15 0)
(3 -7.83845e-16 0)
(3 2.43303e-16 0)
(3 1.49838e-16 0)
(3 1.21667e-16 0)
(3 4.38429e-16 0)
(3 6.44133e-16 0)
(3 1.74188e-16 0)
(3 1.50224e-16 0)
(3 3.34955e-16 0)
(3 2.61441e-16 0)
(3 -8.26523e-17 0)
(3 -5.61678e-16 0)
(3 -2.1503e-15 0)
(3 -2.13961e-15 0)
(3 -5.72323e-15 0)
(2.04825 0.171221 0)
(0.84162 0.174001 0)
(0.756335 0.171876 0)
(0.740545 0.172377 0)
(0.725633 0.174132 0)
(0.711224 0.175088 0)
(0.695796 0.173535 0)
(0.679584 0.169418 0)
(0.663129 0.165081 0)
(0.647093 0.16446 0)
(0.63243 0.168732 0)
(0.619071 0.176157 0)
(0.604976 0.18224 0)
(0.589634 0.183766 0)
(0.574151 0.180743 0)
(0.558889 0.177048 0)
(0.543918 0.177289 0)
(0.530118 0.182466 0)
(0.516433 0.189106 0)
(0.50144 0.192261 0)
(0.486016 0.191116 0)
(0.470272 0.191828 0)
(0.455221 0.196649 0)
(0.440178 0.201673 0)
(0.424796 0.204195 0)
(0.409554 0.206652 0)
(0.394507 0.210543 0)
(0.37924 0.214882 0)
(0.363367 0.218794 0)
(0.346822 0.222591 0)
(0.329681 0.226769 0)
(0.312073 0.231157 0)
(0.294156 0.235412 0)
(0.276083 0.239572 0)
(0.257839 0.243717 0)
(0.239232 0.247696 0)
(0.220061 0.251429 0)
(0.200215 0.25486 0)
(0.179745 0.258023 0)
(0.158825 0.260886 0)
(0.137742 0.263646 0)
(0.11667 0.266125 0)
(0.0957878 0.269095 0)
(0.0747377 0.271932 0)
(0.0538388 0.276577 0)
(0.0324141 0.279897 0)
(0.0109877 0.284763 0)
(3 1.19953e-16 0)
(3 2.10829e-16 0)
(3 1.99304e-16 0)
(3 -2.41868e-16 0)
(3 -1.08671e-15 0)
(3 -1.28349e-15 0)
(3 -1.38079e-15 0)
(3 -9.99475e-16 0)
(3 -2.31051e-16 0)
(3 1.83897e-16 0)
(3 1.4628e-15 0)
(3 1.57281e-15 0)
(3 1.37991e-15 0)
(3 1.44737e-15 0)
(3 1.47002e-15 0)
(3 1.49828e-15 0)
(3 1.32282e-15 0)
(3 6.239e-16 0)
(3 -1.57986e-16 0)
(3 -3.55833e-16 0)
(3 2.02993e-16 0)
(3 6.7398e-16 0)
(3 2.84048e-16 0)
(3 3.63037e-16 0)
(3 1.06755e-15 0)
(3 1.37208e-15 0)
(3 1.01524e-15 0)
(3 3.95405e-16 0)
(3 -7.64655e-16 0)
(3 -1.27896e-15 0)
(3 -1.47006e-15 0)
(3 -1.3744e-15 0)
(3 -9.48912e-16 0)
(3 -8.01316e-16 0)
(3 -2.51772e-16 0)
(3 6.40942e-16 0)
(3 1.48128e-15 0)
(3 1.59684e-15 0)
(3 1.46953e-15 0)
(3 8.58121e-16 0)
(3 1.70601e-17 0)
(3 3.62091e-17 0)
(3 2.44601e-16 0)
(3 -1.04941e-17 0)
(3 -4.93648e-16 0)
(3 -1.31593e-15 0)
(3 -2.73165e-15 0)
(3 -2.52583e-15 0)
(3 -1.61111e-15 0)
(2.25508 0.172757 0)
(0.8671 0.196353 0)
(0.759277 0.186659 0)
(0.745086 0.184892 0)
(0.729894 0.186278 0)
(0.715204 0.188114 0)
(0.699015 0.187962 0)
(0.681924 0.184888 0)
(0.664824 0.180443 0)
(0.648361 0.178363 0)
(0.633436 0.181352 0)
(0.620333 0.187987 0)
(0.607093 0.194506 0)
(0.592302 0.196985 0)
(0.576835 0.19471 0)
(0.561405 0.190905 0)
(0.546163 0.190599 0)
(0.532138 0.195483 0)
(0.518544 0.202402 0)
(0.503664 0.206264 0)
(0.488339 0.205429 0)
(0.472783 0.205981 0)
(0.457922 0.210789 0)
(0.443167 0.216226 0)
(0.427923 0.219146 0)
(0.412728 0.22173 0)
(0.397691 0.225729 0)
(0.382466 0.230361 0)
(0.366658 0.234698 0)
(0.350201 0.238925 0)
(0.333183 0.243539 0)
(0.31573 0.248434 0)
(0.297954 0.253251 0)
(0.27995 0.257964 0)
(0.261665 0.262622 0)
(0.242905 0.267071 0)
(0.223526 0.271261 0)
(0.2035 0.275179 0)
(0.182921 0.278886 0)
(0.161946 0.28231 0)
(0.140789 0.285581 0)
(0.119509 0.288382 0)
(0.0982459 0.291514 0)
(0.0765628 0.294172 0)
(0.0550835 0.298671 0)
(0.0330858 0.301868 0)
(0.0112001 0.306817 0)
(3 -2.09612e-18 0)