/*--------------------------------*- C++ -*----------------------------------*\
  =========                 |
  \\      /  F ield         | OpenFOAM: The Open Source CFD Toolbox
   \\    /   O peration     | Website:  https://openfoam.org
    \\  /    A nd           | Version:  7
     \\/     M anipulation  |
\*---------------------------------------------------------------------------*/
FoamFile
{
    version     2.0;
    format      ascii;
    class       volScalarField;
    location    "2.9";
    object      T;
}
// * * * * * * * * * * * * * * * * * * * * * * * * * * * * * * * * * * * * * //

dimensions      [0 0 0 1 0 0 0];

internalField   nonuniform List<scalar> 
4032
(
1
1
1
1
1
1
1
1
1
1
1
1.04084
2.31874
2.71839
2.72639
2.73962
2.75428
2.77005
2.78524
2.79781
2.80749
2.81531
2.82229
2.82733
1
1
1
1
1
1
1
1
1
1
1
1.00787
2.29904
2.716
2.7249
2.73806
2.75264
2.76807
2.78281
2.79484
2.80397
2.81129
2.81776
2.8225
1
1
1
1
1
1
1
1
1
1
1
1.00013
2.25635
2.71209
2.72226
2.73531
2.74969
2.76456
2.77866
2.79004
2.79861
2.8056
2.81179
2.8167
1
1
1
1
1
1
1
1
1
1
1
1
2.18793
2.70368
2.71859
2.7317
2.74578
2.75991
2.77326
2.78385
2.79151
2.79742
2.80224
2.80567
1
1
1
1
1
1
1
1
1
1
1
1
2.09021
2.68693
2.71295
2.72595
2.73947
2.75239
2.76428
2.77315
2.779
2.78355
2.78734
2.79175
1
1
1
1
1
1
1
1
1
1
1
1
1.95676
2.65583
2.70095
2.71513
2.729
2.74133
2.75227
2.76019
2.76497
2.76795
2.76789
2.76387
1
1
1
1
1
1
1
1
1
1
1
1
1.77698
2.60005
2.68211
2.70064
2.71596
2.72809
2.73765
2.74311
2.74354
2.73953
2.7324
2.72653
1
1
1
1
1
1
1
1
1
1
1
1
1.51817
2.49772
2.65508
2.68023
2.69784
2.71048
2.7192
2.72239
2.71875
2.71229
2.70681
2.71735
1
1
1
1
1
1
1
1
1
1
1
1
1.16908
2.36369
2.63387
2.65145
2.66977
2.68399
2.692
2.69385
2.68636
2.66789
2.61684
2.51728
1
1
1
1
1
1
1
1
1
1
1
1
1.00781
2.24214
2.60929
2.6147
2.63152
2.648
2.65653
2.6566
2.64622
2.61501
2.55813
2.3969
1
1
1
1
1
1
1
1
1
1
1
1
1
2.00853
2.5805
2.59861
2.61127
2.61822
2.62233
2.6187
2.60471
2.56755
2.50332
2.32128
1
1
1
1
1
1
1
1
1
1
1
1
0.999998
1.6168
2.47952
2.57822
2.58607
2.59127
2.5902
2.58162
2.56229
2.52457
2.45129
2.29077
1
1
1
1
1
1
1
1
1
1
1
1
1
1.11834
2.31696
2.57854
2.56623
2.56439
2.55935
2.54673
2.52329
2.48569
2.40936
2.29096
1
1
1
1
1
1
1
1
1
1
1
1
1
1.00368
2.1238
2.51794
2.53334
2.5351
2.52846
2.51389
2.49021
2.44928
2.37952
2.28843
1
1
1
1
1
1
1
1
1
1
1
1
1
0.999978
1.66782
2.40325
2.5127
2.51168
2.50394
2.4878
2.46345
2.42085
2.36021
2.287
1
1
1
1
1
1
1
1
1
1
1
1
1
0.999994
1.12334
2.21489
2.4883
2.48325
2.47616
2.46006
2.43686
2.39702
2.3448
2.28325
1
1
1
1
1
1
1
1
1
1
1
1
1
0.999999
1.00349
1.91636
2.40465
2.4518
2.44489
2.43249
2.41088
2.37661
2.33191
2.27874
1
1
1
1
1
1
1
1
1
1
1
1
1
1
0.999992
1.28717
2.23121
2.42586
2.41329
2.40266
2.38283
2.3533
2.31481
2.26951
1
1
1
1
1
1
1
1
1
1
1
1
1
1
0.999997
1.01898
2.00982
2.37669
2.37397
2.36607
2.35009
2.32503
2.29308
2.25574
1
1
1
1
1
1
1
1
1
1
1
1
1
1
1
1.00005
1.41447
2.2211
2.35547
2.33771
2.32022
2.2986
2.27291
2.24157
1
1
1
1
1
1
1
1
1
1
1
1
1
1
1
1
1.0422
2.00371
2.32344
2.31062
2.29155
2.27143
2.24879
2.22129
1
1
1
1
1
1
1
1
1
1
1
1
1
1
1
1
1.00035
1.40604
2.15833
2.29348
2.27022
2.24987
2.22715
2.20147
1
1
1
1
1
1
1
1
1
1
1
1
1
1
1
1
1
1.04065
1.9016
2.26105
2.24857
2.22789
2.20551
2.18206
1
1
1
1
1
1
1
1
1
1
1
1
1
1
1
1
1
1.00039
1.31905
2.07445
2.23005
2.20625
2.1879
2.16721
1
1
1
1
1
1
1
1
1
1
1
1
1
1
1
1
1
1
1.02344
1.69251
2.14902
2.19062
2.17318
2.15405
1
1
1
1
1
1
1
1
1
1
1
1
1
1
1
1
1
1
1.00021
1.16602
1.91762
2.16886
2.15353
2.13737
1
1
1
1
1
1
1
1
1
1
1
1
1
1
1
1
1
1
1
1.00623
1.41854
2.00836
2.13362
2.11439
1
1
1
1
1
1
1
1
1
1
1
1
1
1
1
1
1
1
1
1.00004
1.04821
1.67044
2.04356
2.10437
1
1
1
1
1
1
1
1
1
1
1
1
1
1
1
1
1
1
1
1
1.00079
1.17244
1.80739
2.0661
1
1
1
1
1
1
1
1
1
1
1
1
1
1
1
1
1
1
1
1
1
1.00723
1.33449
1.88727
1
1
1
1
1
1
1
1
1
1
1
1
1
1
1
1
1
1
1
1
1
1.00006
1.03105
1.49032
1
1
1
1
1
1
1
1
1
1
1
1
1
1
1
1
1
1
1
1
1
1
1.00046
1.08297
1
1
1
1
1
1
1
1
1
1
1
1
1
1
1
1
1
1
1
1
1
1
1
1.00217
1
1
1
1
1
1
1
1
1
1
1
1
1
1
1
1
1
1
1
1
1
1
1
1.00001
1
1
1
1
1
1
1
1
1
1
1
1
1
1
1
1
1
1
1
1
1
1
1
1
1
1
1
1
1
1
1
1
1
1
1
1
1
1
1
1
1
1
1
1
1
1
1
1
1
1
1
1
1
1
1
1
1
1
1
1
1
1
1
1
1
1
1
1
1
1
1
1
1
1
1
1
1
1
1
1
1
1
1
1
1
1
1
1
1
1
1
1
1
1
1
1
1
1
1
1
1
1
1
1
1
1
1
1
1
1
1
1
1
1
1
1
1
1
1
1
1
1
1
1
1
1
1
1
1
1
1
1
1
1
1
1
1
1
1
1
1
1
1
1
1.6938
1.13576
0.970977
1.05655
1.17499
1.27265
1.40276
1.46151
1.4984
1.52903
1.58833
1.6838
1.73629
1.7476
1.74989
1.74297
1.73247
1.72646
1.72433
1.71838
1.71604
1.71658
1.71905
1.71929
1.71181
1.70369
1.70144
1.70289
1.70738
1.7138
1.71558
1.71347
1.70585
2.1871
2.79958
2.81672
2.80563
2.79195
2.77078
2.74183
2.7097
2.67927
2.64926
2.62754
2.61339
2.60108
2.58505
2.56146
2.53095
2.49886
2.47124
2.45144
2.43983
2.43286
2.42352
2.40928
2.39155
2.37094
2.35083
2.33377
2.32196
2.31478
2.30635
2.29609
2.28442
2.26981
2.2519
2.23222
2.21366
2.19769
2.18449
2.1737
2.16478
2.15712
2.15018
2.14325
2.13524
2.1241
2.10778
2.08848
2.07414
2.06505
2.05763
2.05129
2.04617
2.04055
2.03395
2.02331
2.00294
1.97955
1.96636
1.95758
1.94896
1.94102
1.93609
1.92383
1.94597
1.64565
1.42312
1.33219
1.32689
1.32871
1.31802
1.2831
1.27878
1.3033
1.35607
1.42836
1.49885
1.54745
1.57248
1.58639
1.60255
1.6258
1.64077
1.65056
1.65896
1.66541
1.66904
1.67059
1.67239
1.67294
1.67255
1.6703
1.67033
1.67363
1.67754
1.67953
1.69569
2.04511
2.67021
2.75816
2.72836
2.70617
2.69176
2.67689
2.65847
2.63293
2.60493
2.58411
2.5712
2.56174
2.55063
2.53347
2.51009
2.48324
2.45781
2.43793
2.42396
2.41384
2.40497
2.39373
2.37898
2.36093
2.34064
2.32321
2.3097
2.29928
2.29057
2.28226
2.27248
2.2604
2.24553
2.22757
2.20862
2.19183
2.17806
2.16692
2.15775
2.14978
2.14225
2.13456
2.12625
2.1166
2.10387
2.08755
2.072
2.06101
2.05318
2.04666
2.04066
2.03438
2.02682
2.01642
2.0008
1.98167
1.96632
1.95608
1.94744
1.93931
1.93279
1.91974
2.04228
1.84181
1.68354
1.55483
1.46993
1.39935
1.34107
1.293
1.24312
1.24386
1.26697
1.30445
1.33975
1.36695
1.39287
1.41476
1.443
1.48787
1.52646
1.55516
1.57916
1.58985
1.59188
1.5956
1.60306
1.60853
1.6109
1.61102
1.60664
1.60279
1.60401
1.62811
1.73684
1.94483
2.33694
2.56036
2.59793
2.58064
2.56691
2.56007
2.55345
2.53768
2.51969
2.50495
2.49337
2.48363
2.47394
2.46203
2.4476
2.43101
2.41398
2.3978
2.38254
2.36876
2.35761
2.34742
2.33719
2.32617
2.31372
2.29889
2.28196
2.26671
2.25629
2.24794
2.23965
2.23041
2.21941
2.20605
2.19044
2.1743
2.15962
2.14744
2.13788
2.13017
2.123
2.11521
2.10616
2.09597
2.08543
2.07424
2.06182
2.0494
2.03945
2.03162
2.02449
2.01705
2.0081
1.99705
1.98542
1.97443
1.963
1.95092
1.94041
1.93122
1.92313
1.90987
2.10466
1.94071
1.80752
1.70913
1.60603
1.52029
1.4644
1.41584
1.35483
1.31653
1.30387
1.29192
1.28526
1.28739
1.29352
1.30022
1.3198
1.36647
1.41713
1.45037
1.47443
1.49225
1.50307
1.5146
1.52939
1.54672
1.55795
1.55853
1.55351
1.5469
1.55988
1.66052
1.88463
1.97889
2.05298
2.25015
2.3977
2.45735
2.47498
2.46421
2.44958
2.43418
2.42279
2.41559
2.41025
2.40161
2.39145
2.38141
2.37188
2.3626
2.3519
2.33981
2.32658
2.31211
2.29802
2.28764
2.27966
2.27269
2.2653
2.25579
2.24316
2.22718
2.21144
2.20049
2.19253
2.18502
2.17699
2.16743
2.15584
2.14248
2.12826
2.1144
2.10258
2.09406
2.08809
2.08242
2.07556
2.06766
2.05947
2.05066
2.04029
2.02796
2.01567
2.0059
1.99766
1.98904
1.97871
1.96819
1.96095
1.95532
1.94841
1.93883
1.92717
1.91596
1.90722
1.89322
2.15798
2.02417
1.90249
1.81005
1.71792
1.62393
1.56719
1.5173
1.47076
1.4245
1.3742
1.33597
1.31668
1.30545
1.29045
1.28353
1.28385
1.29411
1.31956
1.35844
1.39314
1.42131
1.44564
1.45836
1.47324
1.49125
1.50732
1.51266
1.51389
1.52758
1.62235
1.84618
1.98082
1.99435
1.99435
2.03487
2.16973
2.31721
2.38746
2.40629
2.40028
2.38529
2.37269
2.36345
2.35949
2.35243
2.33988
2.32557
2.31551
2.30836
2.30099
2.29237
2.28208
2.26863
2.25219
2.23884
2.23101
2.22511
2.21936
2.2126
2.20389
2.1914
2.17459
2.1583
2.14767
2.14016
2.13309
2.12577
2.11706
2.10678
2.09545
2.08289
2.06867
2.05435
2.04412
2.03909
2.03592
2.03264
2.02848
2.02242
2.01403
2.00234
1.98702
1.97248
1.96145
1.95167
1.94282
1.93733
1.93401
1.93042
1.92563
1.91849
1.90778
1.89457
1.88422
1.86946
2.18725
2.08002
1.97867
1.88674
1.79925
1.72011
1.65991
1.59869
1.54267
1.50685
1.46929
1.41717
1.38775
1.37428
1.35218
1.32344
1.29954
1.29545
1.29904
1.30368
1.31509
1.33516
1.36532
1.39439
1.4155
1.43745
1.46323
1.47243
1.49115
1.59246
1.8113
1.9729
1.99902
2.00288
2.0013
1.99468
2.01697
2.12334
2.26242
2.33946
2.35989
2.36261
2.35354
2.34058
2.33111
2.32225
2.30788
2.29217
2.28169
2.27351
2.26708
2.26023
2.25137
2.23988
2.22356
2.20595
2.19562
2.18939
2.18429
2.17915
2.17269
2.16375
2.15028
2.13145
2.11383
2.10341
2.09595
2.08935
2.08315
2.07531
2.06587
2.05535
2.04236
2.02522
2.00989
2.00474
2.00239
1.99999
1.99769
1.99375
1.98725
1.97813
1.96234
1.9405
1.9233
1.91363
1.90918
1.90698
1.90564
1.90377
1.90087
1.89594
1.88683
1.87203
1.85774
1.84198
2.20625
2.11542
2.03181
1.95285
1.8657
1.79185
1.73518
1.67717
1.61634
1.57281
1.53888
1.49382
1.4443
1.42023
1.40385
1.38412
1.36262
1.33511
1.30727
1.30266
1.30371
1.31124
1.322
1.33288
1.34367
1.36441
1.39355
1.42736
1.53649
1.76838
1.93462
1.98783
2.0047
2.0011
1.99811
1.98877
1.97835
1.98694
2.05171
2.17903
2.2923
2.32118
2.33285
2.32729
2.31538
2.30425
2.2868
2.26869
2.25674
2.24914
2.24373
2.23846
2.22991
2.21931
2.20546
2.18695
2.17116
2.1636
2.15899
2.15487
2.14911
2.14187
2.13189
2.11614
2.09459
2.07884
2.07187
2.06634
2.06003
2.05205
2.04249
2.03186
2.02024
2.00606
1.98944
1.9803
1.97701
1.97371
1.97087
1.96802
1.96285
1.95518
1.94041
1.91471
1.89409
1.88733
1.88394
1.88172
1.88068
1.87911
1.87682
1.87306
1.86479
1.84749
1.83112
1.81832
2.215
2.13912
2.06659
1.99607
1.91643
1.85205
1.79808
1.74034
1.67756
1.63424
1.59694
1.56306
1.52305
1.47219
1.44353
1.43479
1.42349
1.40156
1.36598
1.3327
1.31938
1.31713
1.31972
1.31789
1.31533
1.31882
1.33493
1.4427
1.70754
1.87113
1.91881
1.94083
1.96693
1.96859
1.97094
1.97203
1.9649
1.9527
1.94093
1.97873
2.10454
2.23334
2.28763
2.30548
2.30103
2.28639
2.26857
2.25205
2.23716
2.22785
2.22149
2.21619
2.20949
2.19981
2.18877
2.17481
2.15724
2.14304
2.13601
2.13071
2.12661
2.12089
2.11313
2.1027
2.08766
2.06831
2.05147
2.04062
2.03255
2.02546
2.0185
2.01015
2.00163
1.99269
1.9804
1.96505
1.95711
1.95408
1.95174
1.94803
1.94222
1.93388
1.92028
1.89925
1.87847
1.86926
1.86506
1.86181
1.85954
1.85761
1.85553
1.85217
1.84362
1.82338
1.80784
1.79877
2.21965
2.15483
2.08973
2.0266
1.96159
1.89918
1.84396
1.78899
1.73785
1.69345
1.64387
1.60591
1.57975
1.54787
1.50576
1.46674
1.45397
1.44094
1.42027
1.39676
1.3709
1.34246
1.32394
1.31637
1.31653
1.32794
1.40534
1.63551
1.81098
1.83536
1.83969
1.84621
1.86697
1.89258
1.91165
1.9265
1.92552
1.92084
1.91622
1.90811
1.92904
2.02953
2.15439
2.24409
2.26172
2.25912
2.24697
2.23541
2.22351
2.21069
2.19979
2.19211
2.18484
2.17632
2.16702
2.15754
2.14561
2.12936
2.11509
2.10809
2.10234
2.09678
2.09178
2.08484
2.07609
2.0618
2.0388
2.01953
2.0105
2.00378
1.99684
1.99067
1.98479
1.97792
1.96982
1.9582
1.9437
1.93287
1.92641
1.92117
1.91528
1.90811
1.89961
1.8883
1.87322
1.85839
1.85161
1.84859
1.84611
1.84319
1.83934
1.83366
1.82382
1.8075
1.79381
1.78264
2.21794
2.16139
2.10622
2.04883
1.98793
1.93524
1.88452
1.82816
1.77953
1.73989
1.69635
1.64575
1.61512
1.59406
1.56306
1.52615
1.4933
1.46932
1.45608
1.44454
1.42901
1.40167
1.3591
1.34312
1.34836
1.40439
1.59931
1.79872
1.82782
1.82005
1.81081
1.79999
1.79327
1.79928
1.80909
1.82131
1.83936
1.8567
1.87166
1.87278
1.87019
1.88197
1.94342
2.07067
2.16063
2.20454
2.21834
2.21459
2.20695
2.19592
2.18238
2.16781
2.15624
2.14796
2.14054
2.13353
2.12593
2.11558
2.09893
2.08371
2.07645
2.07093
2.06698
2.06265
2.05592
2.04581
2.02894
2.00662
1.99086
1.98299
1.97721
1.97166
1.9664
1.9603
1.95371
1.94587
1.9333
1.9168
1.90535
1.89875
1.89283
1.88644
1.88012
1.87408
1.8665
1.85538
1.84174
1.83195
1.82592
1.82053
1.81491
1.80852
1.80174
1.79435
1.78686
1.77331
2.21245
2.16479
2.11556
2.06375
2.01191
1.96254
1.91228
1.85965
1.81738
1.77849
1.73674
1.68883
1.65696
1.62869
1.59975
1.57374
1.54821
1.51847
1.48345
1.4673
1.46133
1.44428
1.41592
1.39699
1.44042
1.62366
1.80715
1.8554
1.84254
1.8233
1.81027
1.79987
1.78878
1.77065
1.75591
1.74755
1.75089
1.76198
1.77889
1.79502
1.80648
1.80673
1.81103
1.85457
1.95734
2.07831
2.1495
2.17302
2.18703
2.17861
2.16549
2.14708
2.12936
2.1216
2.11521
2.11017
2.10374
2.09585
2.08342
2.06435
2.05067
2.04403
2.03863
2.03393
2.02811
2.02039
2.00919
1.99314
1.97532
1.96314
1.95652
1.9513
1.94573
1.93974
1.93367
1.92718
1.91827
1.90511
1.88983
1.8792
1.87288
1.86784
1.86331
1.85889
1.85403
1.84659
1.83284
1.81638
1.80642
1.80013
1.79402
1.78738
1.78223
1.77886
1.77573
1.76632
2.20416
2.16282
2.11902
2.07175
2.02554
1.98135
1.93555
1.88785
1.84599
1.80769
1.76916
1.73024
1.69846
1.66569
1.63049
1.60301
1.58466
1.56442
1.53752
1.50265
1.47505
1.465
1.45822
1.49981
1.67952
1.8581
1.895
1.87771
1.8545
1.83695
1.82429
1.80887
1.79144
1.76881
1.74749
1.73798
1.72891
1.71891
1.71409
1.71407
1.71608
1.71918
1.71888
1.7215
1.75114
1.84192
1.98276
2.0783
2.13532
2.14462
2.143
2.12832
2.10925
2.09935
2.09257
2.08785
2.08246
2.07498
2.06539
2.04991
2.03074
2.01838
2.01128
2.00472
1.99796
1.9909
1.98301
1.97318
1.96045
1.94639
1.93604
1.92958
1.92384
1.9177
1.91122
1.90466
1.89772
1.88899
1.87725
1.8648
1.85576
1.84989
1.84547
1.84148
1.83747
1.83194
1.82104
1.80392
1.78902
1.78033
1.77406
1.76944
1.76619
1.76333
1.761
1.75431
2.18951
2.15499
2.116
2.07517
2.03609
1.99529
1.95096
1.91041
1.87377
1.83569
1.79439
1.76163
1.73176
1.69993
1.66856
1.63858
1.60787
1.58737
1.57211
1.54603
1.51339
1.49849
1.53974
1.72199
1.91263
1.94487
1.92564
1.89823
1.87462
1.85876
1.84146
1.82297
1.80493
1.78568
1.76165
1.73718
1.72096
1.70951
1.70006
1.69099
1.68272
1.67282
1.66178
1.64773
1.64192
1.65358
1.71907
1.84664
1.98773
2.06612
2.10232
2.10435
2.09441
2.08226
2.07277
2.06553
2.06021
2.05396
2.04509
2.03301
2.0168
1.9993
1.98725
1.97883
1.97133
1.96435
1.95778
1.95101
1.94288
1.93184
1.91886
1.90892
1.90227
1.89606
1.88931
1.8823
1.87562
1.86893
1.86079
1.85045
1.84048
1.83335
1.82768
1.82214
1.81634
1.80993
1.80172
1.78924
1.77438
1.76319
1.7573
1.75356
1.75043
1.74767
1.74549
1.73932
2.17345
2.1439
2.1103
2.07476
2.04057
2.00389
1.96335
1.92788
1.8926
1.85674
1.81831
1.78856
1.75719
1.72361
1.69388
1.67156
1.64498
1.61108
1.58366
1.56796
1.5552
1.59603
1.77908
1.96677
1.99454
1.97555
1.94736
1.9163
1.89192
1.87523
1.85888
1.84097
1.82327
1.80397
1.77949
1.75002
1.72613
1.71056
1.6961
1.68221
1.6695
1.65853
1.64989
1.63854
1.61705
1.59772
1.58979
1.60941
1.6887
1.83298
1.9619
2.04968
2.05852
2.06473
2.05694
2.04556
2.03672
2.02812
2.01996
2.01226
2.00152
1.98611
1.96972
1.95784
1.9496
1.94284
1.9368
1.9308
1.92446
1.91655
1.90485
1.89142
1.88197
1.87529
1.86888
1.86233
1.85594
1.84967
1.8426
1.83352
1.82358
1.81567
1.80925
1.80275
1.79548
1.78745
1.77887
1.76957
1.75941
1.75083
1.74561
1.74156
1.73737
1.73324
1.73046
1.72478
2.15725
2.1302
2.10094
2.07163
2.04017
2.00577
1.97189
1.94022
1.90683
1.87019
1.83785
1.80896
1.77891
1.74697
1.71619
1.69133
1.66919
1.64063
1.6101
1.59439
1.63948
1.81483
2.01174
2.0356
2.01215
1.98625
1.96338
1.93529
1.90656
1.88695
1.86946
1.85139
1.8331
1.81455
1.79468
1.77044
1.74099
1.71587
1.69804
1.68265
1.6681
1.6548
1.64184
1.6281
1.61242
1.59225
1.57507
1.5601
1.55032
1.57445
1.66358
1.8218
1.93888
2.01628
2.02963
2.02671
2.0176
2.00756
1.99926
1.99038
1.98064
1.97057
1.95665
1.94185
1.93189
1.92483
1.91898
1.91338
1.90734
1.90021
1.89069
1.87722
1.86441
1.85601
1.84977
1.8441
1.83846
1.83256
1.82573
1.81666
1.80554
1.79615
1.78922
1.78262
1.77561
1.76794
1.75975
1.75161
1.74398
1.73752
1.7328
1.72853
1.7243
1.71969
1.71395
1.7008
2.14462
2.11922
2.09221
2.06568
2.03724
2.0052
1.97577
1.94573
1.91452
1.87995
1.85253
1.82322
1.79429
1.76328
1.73878
1.71236
1.68201
1.65764
1.64585
1.69938
1.88273
2.04028
2.06673
2.04814
2.0231
2.00315
1.98247
1.9562
1.92222
1.89522
1.87487
1.85545
1.8364
1.81832
1.80099
1.78213
1.75808
1.72978
1.70533
1.68678
1.67053
1.65477
1.63971
1.62514
1.61034
1.59246
1.57131
1.55153
1.53668
1.52434
1.51608
1.54547
1.6483
1.79745
1.90995
1.97001
1.98015
1.98165
1.97979
1.97007
1.95896
1.95045
1.94022
1.92808
1.9186
1.91081
1.90302
1.89613
1.89032
1.88478
1.87643
1.86373
1.85087
1.84089
1.83346
1.82767
1.82221
1.81643
1.80977
1.80072
1.78853
1.77684
1.76825
1.76147
1.75535
1.74965
1.74433
1.73868
1.73153
1.72347
1.71874
1.71579
1.71233
1.70653
1.6978
1.67935
2.13234
2.10878
2.08426
2.05822
2.03027
2.00258
1.97555
1.94727
1.91633
1.88755
1.86176
1.8339
1.80505
1.77677
1.7534
1.72609
1.698
1.69006
1.7572
1.95558
2.10373
2.10997
2.08394
2.05063
2.02939
2.01204
1.99165
1.96763
1.93691
1.90374
1.87845
1.85804
1.83907
1.82095
1.80348
1.78584
1.76614
1.74187
1.71511
1.69259
1.67407
1.65697
1.64062
1.6245
1.60866
1.59247
1.57526
1.55583
1.53499
1.51586
1.50038
1.48732
1.48225
1.51294
1.62181
1.75357
1.86789
1.90918
1.93049
1.93541
1.93396
1.92925
1.91971
1.91013
1.90249
1.89535
1.88792
1.88018
1.87115
1.86086
1.85137
1.84321
1.83542
1.82736
1.81898
1.81217
1.80648
1.80034
1.7931
1.78472
1.77459
1.76261
1.75179
1.74423
1.73876
1.73428
1.73046
1.72609
1.71985
1.71301
1.70669
1.69883
1.68986
1.6818
1.67348
1.65855
2.11807
2.09696
2.07455
2.05013
2.0237
1.99899
1.97342
1.94701
1.91838
1.89418
1.8676
1.84187
1.8128
1.78951
1.76214
1.73398
1.73542
1.81719
2.01621
2.15728
2.15147
2.12071
2.08532
2.05235
2.03066
2.01285
1.99257
1.97073
1.94555
1.91501
1.88432
1.85989
1.83979
1.82141
1.80349
1.78561
1.7673
1.74749
1.72449
1.69838
1.67474
1.65551
1.63856
1.6228
1.60723
1.59171
1.57572
1.5591
1.54138
1.52141
1.49945
1.47867
1.46453
1.45141
1.45215
1.48164
1.58545
1.71413
1.82097
1.87333
1.88152
1.89199
1.89356
1.88677
1.88031
1.8742
1.86726
1.85922
1.8485
1.83691
1.82805
1.82206
1.81748
1.81263
1.80574
1.79715
1.78912
1.78232
1.77636
1.7693
1.76021
1.74922
1.74034
1.73388
1.72679
1.71985
1.71444
1.71042
1.70741
1.70452
1.69761
1.68542
1.6723
1.66113
1.65216
1.63998
2.09729
2.08055
2.06123
2.03943
2.01781
1.99495
1.97085
1.94413
1.92062
1.89688
1.87189
1.84494
1.82007
1.79481
1.76892
1.77384
1.87536
2.06554
2.1819
2.18251
2.15824
2.12607
2.09219
2.05679
2.03086
2.01155
1.99246
1.97155
1.9486
1.92325
1.89503
1.86578
1.83971
1.81804
1.799
1.78124
1.76428
1.74725
1.72843
1.70659
1.68158
1.65592
1.63344
1.61442
1.59804
1.58364
1.57065
1.55792
1.54353
1.52645
1.50671
1.48415
1.46274
1.4442
1.43485
1.42696
1.42829
1.46144
1.55565
1.68449
1.77083
1.83109
1.84865
1.85702
1.85571
1.84974
1.84282
1.83402
1.82201
1.81059
1.80407
1.80054
1.79819
1.79511
1.78942
1.78129
1.77288
1.76387
1.75348
1.7434
1.73521
1.73228
1.73027
1.72474
1.71566
1.70781
1.70218
1.69774
1.6935
1.68696
1.6767
1.66411
1.65276
1.64262
1.63538
1.62809
2.08621
2.06814
2.05
2.03094
2.01167
1.99056
1.96752
1.94345
1.92145
1.8976
1.87301
1.84721
1.82426
1.80037
1.81734
1.95337
2.13063
2.21028
2.20941
2.18085
2.15534
2.13015
2.10233
2.06906
2.03395
2.00953
1.98946
1.96896
1.94694
1.92383
1.89905
1.8716
1.84286
1.81628
1.79396
1.77477
1.75734
1.74084
1.72445
1.70665
1.68555
1.66097
1.63504
1.61095
1.59119
1.57522
1.56133
1.54859
1.53605
1.52253
1.50587
1.48461
1.46388
1.44663
1.43387
1.42207
1.41267
1.4072
1.4067
1.44073
1.52737
1.64729
1.73125
1.78933
1.81433
1.82239
1.8204
1.81154
1.79871
1.78956
1.78376
1.77798
1.77405
1.77128
1.76853
1.76485
1.75728
1.74504
1.7324
1.72297
1.71779
1.71389
1.7086
1.70342
1.69875
1.69408
1.68902
1.68368
1.67777
1.67013
1.65945
1.64461
1.63244
1.62605
1.62421
1.62008
2.06953
2.05484
2.03695
2.02004
2.00227
1.98287
1.96084
1.94085
1.91943
1.89666
1.87101
1.84938
1.82884
1.85671
2.01626
2.2185
2.24849
2.22352
2.19073
2.16687
2.14998
2.13052
2.10497
2.0747
2.03846
2.00698
1.98389
1.96268
1.94094
1.91824
1.89485
1.87029
1.84371
1.81624
1.79087
1.76875
1.74882
1.7303
1.71298
1.69641
1.67924
1.65922
1.63523
1.61051
1.58995
1.57354
1.55905
1.54519
1.53154
1.51737
1.50097
1.48096
1.46076
1.44532
1.4351
1.42548
1.41626
1.40569
1.39663
1.38568
1.38284
1.41149
1.50257
1.61138
1.70578
1.75449
1.7761
1.77962
1.77859
1.77563
1.76829
1.76094
1.75614
1.7529
1.74846
1.73988
1.72915
1.72056
1.71347
1.70755
1.70179
1.69554
1.68978
1.68593
1.68234
1.67787
1.67284
1.66738
1.66085
1.65314
1.64161
1.6268
1.61742
1.61497
1.61393
1.61006
2.04339
2.03653
2.01954
2.00515
1.98977
1.97148
1.95369
1.93548
1.91543
1.89141
1.87178
1.85785
1.90277
2.07035
2.2519
2.30067
2.26787
2.21755
2.17919
2.15866
2.14447
2.12705
2.10241
2.07403
2.04005
2.00532
1.97869
1.95549
1.93229
1.90874
1.88541
1.86233
1.83835
1.81261
1.78655
1.76271
1.74152
1.72205
1.70344
1.68528
1.66722
1.64825
1.6275
1.60602
1.58715
1.57179
1.55825
1.54495
1.53141
1.51707
1.50075
1.48159
1.46133
1.44526
1.43409
1.42504
1.4178
1.41028
1.40044
1.38653
1.37394
1.35906
1.36008
1.39083
1.48398
1.59269
1.68606
1.72221
1.73083
1.73763
1.74572
1.74477
1.74251
1.73771
1.73002
1.71981
1.70895
1.69985
1.69346
1.68836
1.68278
1.6774
1.67331
1.66994
1.66747
1.66514
1.66167
1.65624
1.64847
1.63543
1.61929
1.61028
1.60916
1.60902
1.60851
1.60304
1.92412
2.01951
2.00512
1.98921
1.97461
1.95987
1.94377
1.92827
1.90729
1.88722
1.88956
1.9644
2.14598
2.27864
2.30701
2.28593
2.25113
2.21504
2.1814
2.1588
2.13891
2.11746
2.09282
2.06518
2.03377
2.00063
1.97132
1.94615
1.92227
1.89845
1.87472
1.85105
1.82672
1.80119
1.77559
1.75239
1.7324
1.71456
1.69751
1.68015
1.66172
1.6417
1.6207
1.60067
1.5832
1.56853
1.55593
1.54421
1.53198
1.51819
1.50279
1.48533
1.46573
1.44841
1.43543
1.42538
1.41662
1.40724
1.39831
1.38967
1.37767
1.36112
1.34973
1.34382
1.34809
1.38471
1.46893
1.57369
1.65336
1.70089
1.70793
1.71241
1.71645
1.71271
1.70759
1.70271
1.6952
1.68734
1.6812
1.67318
1.66365
1.65859
1.65644
1.65455
1.65199
1.64726
1.63971
1.63189
1.62448
1.61443
1.60306
1.59974
1.59832
1.59614
1.59231
1.58395
1.6186
1.93481
1.99562
1.98046
1.96011
1.94473
1.93005
1.91617
1.90377
1.92069
2.02959
2.22549
2.31465
2.31628
2.29284
2.25935
2.23517
2.21138
2.18291
2.15568
2.13005
2.10401
2.07774
2.05038
2.02052
1.98858
1.95882
1.93349
1.9104
1.88788
1.86545
1.84254
1.81819
1.79233
1.7668
1.74414
1.72504
1.70834
1.69269
1.67673
1.65943
1.64033
1.61977
1.59996
1.5825
1.56736
1.55392
1.54166
1.53069
1.52021
1.50803
1.4929
1.47537
1.45807
1.44268
1.43014
1.42058
1.41288
1.40503
1.39478
1.38254
1.36867
1.35489
1.34359
1.33772
1.33136
1.335
1.37397
1.45565
1.56035
1.62518
1.67565
1.69378
1.69964
1.69807
1.6913
1.68229
1.67429
1.66426
1.65332
1.65039
1.64951
1.64711
1.64391
1.63944
1.63243
1.62319
1.61306
1.60156
1.59277
1.58949
1.58874
1.58669
1.5825
1.57749
1.56898
1.164
1.70425
1.93251
1.9722
1.95515
1.93075
1.9163
1.91908
1.97021
2.11035
2.25804
2.34396
2.32734
2.2961
2.26565
2.24072
2.22076
2.1993
2.17193
2.14102
2.11179
2.08487
2.05886
2.03279
2.00535
1.97611
1.94751
1.92225
1.89983
1.87865
1.85764
1.83597
1.81307
1.78877
1.76458
1.74275
1.72385
1.70701
1.69121
1.67542
1.65847
1.63998
1.62096
1.60301
1.5868
1.57226
1.55928
1.54688
1.53409
1.52029
1.50623
1.49306
1.48048
1.46821
1.45589
1.44455
1.43385
1.42502
1.41579
1.40486
1.39187
1.375
1.36149
1.34975
1.34009
1.32997
1.323
1.31683
1.3217
1.35817
1.44078
1.54121
1.60992
1.65775
1.67821
1.68012
1.68005
1.67634
1.66344
1.64968
1.64189
1.63505
1.62827
1.62226
1.61634
1.60971
1.60289
1.59418
1.58353
1.57676
1.57578
1.57519
1.57342
1.56917
1.56206
1.55259
1.00743
1.25851
1.74084
1.93935
1.93911
1.92233
1.93362
2.03934
2.20604
2.29394
2.3223
2.31977
2.29974
2.27313
2.24769
2.22691
2.20519
2.18124
2.15412
2.12453
2.09576
2.06921
2.04401
2.01914
1.99389
1.96809
1.94204
1.91752
1.89538
1.87474
1.8544
1.83353
1.8118
1.78936
1.76712
1.74638
1.72765
1.7104
1.69363
1.67669
1.65969
1.64316
1.6273
1.61213
1.59878
1.58767
1.57697
1.56447
1.54977
1.53382
1.51818
1.5051
1.49268
1.48137
1.4699
1.45745
1.44243
1.43091
1.42482
1.41737
1.40401
1.38262
1.37153
1.36539
1.35689
1.34534
1.33189
1.31809
1.30732
1.30108
1.30909
1.34721
1.438
1.53544
1.60391
1.63508
1.66238
1.66437
1.66157
1.65477
1.64558
1.63378
1.62337
1.61515
1.60753
1.59791
1.58505
1.57439
1.57148
1.57106
1.5699
1.56834
1.56535
1.55919
1.55123
1.54241
1.00007
1.01891
1.33598
1.80399
1.87595
1.94969
2.11372
2.27224
2.33872
2.32514
2.31892
2.29626
2.27925
2.25882
2.23545
2.21398
2.1918
2.1677
2.14216
2.11516
2.08792
2.06186
2.03726
2.0136
1.99009
1.96675
1.94353
1.92094
1.89947
1.87893
1.85866
1.83811
1.81716
1.79632
1.77605
1.75667
1.73824
1.72054
1.70318
1.68599
1.66913
1.65267
1.6369
1.62264
1.61025
1.59928
1.58841
1.57716
1.56526
1.55166
1.53409
1.51753
1.51051
1.50201
1.48933
1.47292
1.45753
1.44399
1.42884
1.413
1.39808
1.38673
1.37818
1.36793
1.35642
1.34355
1.33051
1.31773
1.30629
1.29961
1.2949
1.29033
1.30144
1.3435
1.43344
1.52371
1.61006
1.63172
1.63822
1.6385
1.63439
1.62846
1.62311
1.61559
1.60457
1.59102
1.57527
1.56433
1.55861
1.55511
1.5526
1.55071
1.54875
1.547
1.54302
1.55116
1
1.00023
1.03803
1.43476
1.71036
2.19146
2.34793
2.38915
2.37949
2.35439
2.32925
2.31011
2.29522
2.27551
2.25155
2.23034
2.2106
2.1886
2.16463
2.13901
2.1123
2.08617
2.06184
2.03912
2.01774
1.99659
1.97539
1.95389
1.9324
1.91131
1.89052
1.86973
1.84877
1.82775
1.80682
1.78626
1.76636
1.74719
1.72862
1.71047
1.69269
1.67548
1.65928
1.6445
1.63103
1.61825
1.60673
1.59641
1.58559
1.57248
1.55666
1.53864
1.51945
1.50531
1.49433
1.48224
1.46788
1.45092
1.43402
1.41931
1.40556
1.39482
1.38346
1.37182
1.36129
1.35001
1.3375
1.32459
1.31342
1.30488
1.29556
1.2888
1.28322
1.28332
1.29596
1.34499
1.4347
1.52265
1.59148
1.62704
1.62496
1.62028
1.61595
1.60577
1.59199
1.58051
1.57053
1.55957
1.54925
1.5442
1.54242
1.54164
1.54271
1.54856
1.56465
1.6483
1
1
1.00075
1.06336
1.90346
2.56951
2.55974
2.50137
2.4635
2.43139
2.39637
2.3712
2.35282
2.32832
2.29998
2.27453
2.25185
2.22732
2.2011
2.17415
2.14634
2.11869
2.09387
2.072
2.05157
2.03133
2.01023
1.9878
1.96438
1.94062
1.91681
1.89291
1.86889
1.84485
1.82098
1.79771
1.77554
1.7548
1.7354
1.71692
1.699
1.68166
1.66522
1.65003
1.63644
1.62441
1.61279
1.60072
1.58771
1.57366
1.55905
1.54364
1.52575
1.51163
1.5037
1.49483
1.48082
1.46072
1.44034
1.42912
1.42003
1.40883
1.39626
1.3814
1.36524
1.35331
1.34618
1.33758
1.32769
1.31793
1.30593
1.29302
1.28322
1.27732
1.27409
1.27567
1.29097
1.34802
1.43323
1.52022
1.5661
1.60801
1.60857
1.60478
1.59488
1.57865
1.56406
1.55144
1.54385
1.54035
1.54276
1.55725
1.59065
1.64443
1.70409
1.79397
1
1
1
1.01191
2.26187
2.77575
2.71157
2.64019
2.5978
2.56223
2.52397
2.48972
2.45792
2.42475
2.39031
2.35842
2.33081
2.30422
2.27451
2.24267
2.2111
2.18063
2.15376
2.1305
2.10876
2.08662
2.06287
2.03717
2.01016
1.98275
1.95538
1.92811
1.90089
1.87373
1.84679
1.82077
1.79659
1.77467
1.75466
1.73591
1.71796
1.7005
1.68333
1.66677
1.65183
1.63873
1.62647
1.61399
1.6007
1.5862
1.56983
1.55194
1.53515
1.52033
1.5054
1.49151
1.4782
1.46369
1.44816
1.43205
1.41601
1.40206
1.38988
1.37825
1.36652
1.35605
1.3449
1.3326
1.32056
1.31004
1.30144
1.29332
1.28516
1.27883
1.27408
1.27116
1.2698
1.27192
1.28773
1.33753
1.4182
1.50548
1.55095
1.57869
1.57881
1.57154
1.56442
1.55795
1.56279
1.58172
1.61781
1.67803
1.74402
1.80047
1.83878
1.86244
1
1
1
1.17171
2.44362
2.83185
2.82495
2.79178
2.75417
2.7116
2.66436
2.61779
2.57054
2.52416
2.48042
2.44067
2.40444
2.37036
2.33411
2.2961
2.26264
2.23238
2.20453
2.1789
2.15376
2.12734
2.09901
2.06945
2.03976
2.0104
1.98125
1.95206
1.92251
1.89243
1.86265
1.83514
1.81098
1.78968
1.77023
1.75164
1.73308
1.71408
1.69494
1.67694
1.66126
1.64771
1.63526
1.62291
1.60966
1.59479
1.57807
1.56051
1.54286
1.52487
1.50807
1.49377
1.4811
1.46857
1.4544
1.43778
1.42094
1.40468
1.38983
1.37846
1.36942
1.35922
1.34754
1.33515
1.32214
1.30917
1.30029
1.29371
1.28604
1.28038
1.27844
1.27604
1.26982
1.2629
1.2551
1.25725
1.27464
1.3255
1.41174
1.49981
1.53766
1.55337
1.58914
1.63826
1.68107
1.71746
1.75479
1.78975
1.81547
1.83819
1.85742
1.86087
1
1
1
1.25013
2.50805
2.82894
2.84283
2.83554
2.81249
2.7783
2.73451
2.68471
2.63258
2.58115
2.53316
2.48908
2.44749
2.40767
2.36861
2.33043
2.29519
2.26242
2.2317
2.20256
2.17367
2.14379
2.1126
2.08112
2.05048
2.02067
1.99108
1.96109
1.93019
1.89836
1.86716
1.83926
1.81556
1.79496
1.7761
1.75776
1.7388
1.71875
1.69832
1.67945
1.66354
1.65006
1.63768
1.62529
1.61205
1.59766
1.58203
1.56505
1.54695
1.52837
1.51025
1.49394
1.48015
1.46792
1.45618
1.4432
1.42768
1.40968
1.39206
1.37612
1.36238
1.35208
1.34436
1.33733
1.32735
1.31197
1.29697
1.28743
1.28272
1.28065
1.27779
1.27206
1.26369
1.25408
1.24321
1.23648
1.23348
1.23822
1.26796
1.34537
1.46649
1.59792
1.69639
1.77019
1.83419
1.87621
1.90787
1.9278
1.92191
1.91007
1.89106
1.85853
)
;

boundaryField
{
    inlet
    {
        type            fixedValue;
        value           uniform 1;
    }
    outlet
    {
        type            inletOutlet;
        inletValue      uniform 1;
        value           nonuniform List<scalar> 
32
(
1.92438
1.9201
1.91004
1.89311
1.86922
1.84185
1.8188
1.79966
1.78323
1.77305
1.76618
1.7546
1.73984
1.7248
1.69941
1.67738
1.65736
1.63992
1.62892
1.62111
1.61093
1.60326
1.58384
1.56899
1.55246
1.54211
1.5502
1.64641
1.79291
1.86203
1.86088
1.85838
)
;
    }
    bottom
    {
        type            symmetryPlane;
    }
    top
    {
        type            symmetryPlane;
    }
    obstacle
    {
        type            zeroGradient;
    }
    defaultFaces
    {
        type            empty;
    }
}


// ************************************************************************* //
