/*--------------------------------*- C++ -*----------------------------------*\
  =========                 |
  \\      /  F ield         | OpenFOAM: The Open Source CFD Toolbox
   \\    /   O peration     | Website:  https://openfoam.org
    \\  /    A nd           | Version:  7
     \\/     M anipulation  |
\*---------------------------------------------------------------------------*/
FoamFile
{
    version     2.0;
    format      ascii;
    class       volScalarField;
    location    "1";
    object      p;
}
// * * * * * * * * * * * * * * * * * * * * * * * * * * * * * * * * * * * * * //

dimensions      [1 -1 -2 0 0 0 0];

internalField   nonuniform List<scalar> 
258048
(
1
1
1
1
1
1
1
1
1
1
1
1
1
1
1
1
1
1
1
1
1
1
1
1
1
1
1
1
1
1
1
1
1
1
1
1
1
1
1
1
1
1
1
1
1
1
1
1
1
1
1
1
1
1
1
1
1
1
1
1
1
1
1
1
1
1
1
1
1
1
1
1
1
1
1
1
1
1
1
1
1
1
1
1
1
1
1
1
1
1
1
1
1
1
1
1
1
1
1
1
1
1
1
1
1
1
1
1
1.69619
8.46454
10.7074
10.6353
10.5982
10.6096
10.6825
10.7955
10.9176
11.02
11.0951
11.1417
11.1637
11.1682
11.1549
11.1364
11.1314
11.1486
11.1883
11.2544
11.3212
11.3705
11.4098
11.4379
11.4659
11.4919
11.5087
11.5094
11.5025
11.4886
11.4765
11.4719
11.493
11.5398
11.593
11.6424
11.685
11.7214
11.7533
11.7806
11.7998
11.8107
11.8074
11.7849
11.7548
11.7266
11.7168
11.7387
11.7911
11.8597
11.929
11.9867
12.03
12.0599
12.0781
12.0876
12.0923
12.0965
12.1037
12.1144
12.1259
12.1351
12.1397
12.1383
12.1334
12.1265
12.1186
12.1101
12.103
12.102
12.1105
12.1275
12.1471
12.1582
12.153
12.1404
12.1352
12.1461
12.1769
12.2237
12.274
12.3159
12.3433
12.3595
1
1
1
1
1
1
1
1
1
1
1
1
1
1
1
1
1
1
1
1
1
1
1
1
1
1
1
1
1
1
1
1
1
1
1
1
1
1
1
1
1
1
1
1
1
1
1
1
1
1
1
1
1
1
1
1
1
1
1
1
1
1
1
1
1
1
1
1
1
1
1
1
1
1
1
1
1
1
1
1
1
1
1
1
1
1
1
1
1
1
1
1
1
1
1
1
1
1
1
1
1
1
1
1
1
1
1
1
1.6846
8.43611
10.6909
10.631
10.5977
10.6136
10.688
10.8022
10.9229
11.0237
11.0961
11.1422
11.165
11.1688
11.1538
11.1346
11.1295
11.1487
11.1892
11.2554
11.3216
11.3697
11.4082
11.4363
11.4651
11.4917
11.5082
11.5101
11.5031
11.4885
11.4757
11.4708
11.4922
11.5391
11.5925
11.6421
11.6847
11.7211
11.7531
11.7805
11.7996
11.8101
11.8064
11.7837
11.7537
11.726
11.7168
11.7394
11.792
11.8609
11.9306
11.9884
12.0313
12.0602
12.077
12.0853
12.0895
12.0941
12.1025
12.1147
12.1274
12.1373
12.1412
12.1383
12.1322
12.1245
12.1164
12.1084
12.1023
12.1022
12.1113
12.1282
12.147
12.1568
12.1504
12.1376
12.1331
12.1454
12.1777
12.225
12.2748
12.3155
12.3418
12.3566
1
1
1
1
1
1
1
1
1
1
1
1
1
1
1
1
1
1
1
1
1
1
1
1
1
1
1
1
1
1
1
1
1
1
1
1
1
1
1
1
1
1
1
1
1
1
1
1
1
1
1
1
1
1
1
1
1
1
1
1
1
1
1
1
1
1
1
1
1
1
1
1
1
1
1
1
1
1
1
1
1
1
1
1
1
1
1
1
1
1
1
1
1
1
1
1
1
1
1
1
1
1
1
1
1
1
1
1
1.65868
8.38609
10.6755
10.6251
10.599
10.6195
10.6935
10.8106
10.9298
11.0288
11.0977
11.1428
11.1653
11.1683
11.1505
11.1308
11.127
11.1488
11.1901
11.2567
11.3222
11.3687
11.4059
11.4336
11.4633
11.4908
11.5074
11.5104
11.5033
11.4878
11.4743
11.469
11.4906
11.5378
11.5917
11.6416
11.6841
11.7202
11.7522
11.7795
11.7986
11.809
11.8048
11.7816
11.7512
11.7235
11.7148
11.7381
11.7909
11.8604
11.9311
11.9897
12.0325
12.0602
12.0748
12.0812
12.0845
12.0895
12.0997
12.1143
12.1288
12.1398
12.1433
12.1387
12.1309
12.1219
12.1133
12.1056
12.1007
12.1021
12.1122
12.1293
12.1471
12.1551
12.1471
12.1339
12.1305
12.1444
12.1779
12.2254
12.2745
12.3142
12.3399
12.3534
1
1
1
1
1
1
1
1
1
1
1
1
1
1
1
1
1
1
1
1
1
1
1
1
1
1
1
1
1
1
1
1
1
1
1
1
1
1
1
1
1
1
1
1
1
1
1
1
1
1
1
1
1
1
1
1
1
1
1
1
1
1
1
1
1
1
1
1
1
1
1
1
1
1
1
1
1
1
1
1
1
1
1
1
1
1
1
1
1
1
1
1
1
1
1
1
1
1
1
1
1
1
1
1
1
1
1
1
1.62045
8.31077
10.6576
10.6176
10.6007
10.6279
10.7025
10.8215
10.9387
11.0345
11.0993
11.1425
11.1637
11.1655
11.1454
11.1266
11.1253
11.1496
11.1914
11.2577
11.3219
11.3664
11.4021
11.43
11.4614
11.49
11.5071
11.5108
11.5034
11.4867
11.4721
11.4662
11.4884
11.5363
11.5913
11.6416
11.6838
11.7193
11.7508
11.7779
11.797
11.8072
11.8027
11.7794
11.7491
11.7216
11.7134
11.7375
11.7904
11.8605
11.9319
11.9914
12.0343
12.0604
12.0726
12.0767
12.0788
12.0841
12.0961
12.1132
12.1301
12.1422
12.1453
12.1389
12.1293
12.1188
12.1094
12.1019
12.098
12.101
12.1124
12.1299
12.1466
12.1523
12.1425
12.129
12.127
12.1431
12.1782
12.2257
12.2739
12.3124
12.3371
12.3492
1
1
1
1
1
1
1
1
1
1
1
1
1
1
1
1
1
1
1
1
1
1
1
1
1
1
1
1
1
1
1
1
1
1
1
1
1
1
1
1
1
1
1
1
1
1
1
1
1
1
1
1
1
1
1
1
1
1
1
1
1
1
1
1
1
1
1
1
1
1
1
1
1
1
1
1
1
1
1
1
1
1
1
1
1
1
1
1
1
1
1
1
1
1
1
1
1
1
1
1
1
1
1
1
1
1
1
1
1.56992
8.20559
10.6444
10.6114
10.6022
10.638
10.7158
10.8343
10.9486
11.0395
11.0985
11.1399
11.1596
11.1611
11.1404
11.1232
11.1247
11.1507
11.1927
11.258
11.3202
11.3627
11.3973
11.4261
11.4595
11.4895
11.5073
11.5112
11.5031
11.4847
11.4687
11.4623
11.4855
11.5346
11.591
11.6421
11.6839
11.7185
11.749
11.7756
11.7946
11.8048
11.8003
11.777
11.7469
11.7197
11.7121
11.737
11.7898
11.8601
11.9321
11.9924
12.0353
12.0602
12.0703
12.0721
12.0728
12.0782
12.0918
12.1112
12.1302
12.1435
12.1464
12.1388
12.1276
12.1158
12.1055
12.0977
12.0946
12.0988
12.1116
12.1296
12.1452
12.1489
12.1375
12.124
12.1234
12.1415
12.1778
12.2253
12.2726
12.3098
12.3337
12.3446
1
1
1
1
1
1
1
1
1
1
1
1
1
1
1
1
1
1
1
1
1
1
1
1
1
1
1
1
1
1
1
1
1
1
1
1
1
1
1
1
1
1
1
1
1
1
1
1
1
1
1
1
1
1
1
1
1
1
1
1
1
1
1
1
1
1
1
1
1
1
1
1
1
1
1
1
1
1
1
1
1
1
1
1
1
1
1
1
1
1
1
1
1
1
1
1
1
1
1
1
1
1
1
1
1
1
1
1
1.50808
8.06687
10.6305
10.6064
10.6083
10.6539
10.7365
10.8519
10.9593
11.0413
11.0947
11.1352
11.1541
11.1563
11.1363
11.1208
11.1248
11.1517
11.1934
11.2571
11.3165
11.3575
11.3916
11.4222
11.4581
11.4895
11.5081
11.5116
11.5021
11.4816
11.4641
11.4571
11.4817
11.5325
11.5907
11.6425
11.6839
11.7174
11.7468
11.7727
11.7918
11.8022
11.7977
11.7745
11.7446
11.7179
11.7111
11.7368
11.7894
11.8594
11.9317
11.9925
12.0353
12.0591
12.0676
12.0676
12.0671
12.0724
12.0874
12.1085
12.1289
12.143
12.1461
12.138
12.1259
12.1132
12.102
12.0937
12.0906
12.0953
12.1089
12.1274
12.1424
12.1448
12.1328
12.1195
12.1201
12.1395
12.1764
12.2236
12.2701
12.3065
12.3298
12.3402
1
1
1
1
1
1
1
1
1
1
1
1
1
1
1
1
1
1
1
1
1
1
1
1
1
1
1
1
1
1
1
1
1
1
1
1
1
1
1
1
1
1
1
1
1
1
1
1
1
1
1
1
1
1
1
1
1
1
1
1
1
1
1
1
1
1
1
1
1
1
1
1
1
1
1
1
1
1
1
1
1
1
1
1
1
1
1
1
1
1
1
1
1
1
1
1
1
1
1
1
1
1
1
1
1
1
1
1
1.43571
7.89067
10.6142
10.6061
10.6233
10.6785
10.7632
10.8725
10.9666
11.0373
11.0879
11.1294
11.1479
11.1512
11.1328
11.1188
11.1249
11.1521
11.1936
11.2551
11.3114
11.351
11.3854
11.4186
11.457
11.4899
11.509
11.5114
11.5002
11.4774
11.458
11.4506
11.477
11.5297
11.5898
11.6425
11.6834
11.7157
11.7441
11.7697
11.789
11.7998
11.7952
11.7719
11.742
11.7158
11.71
11.7365
11.789
11.8586
11.9307
11.9915
12.0339
12.0566
12.0638
12.0628
12.0616
12.0671
12.0831
12.1055
12.1266
12.1407
12.144
12.136
12.1238
12.1109
12.0991
12.0903
12.0865
12.0907
12.1041
12.1228
12.1379
12.1401
12.1286
12.1162
12.1174
12.137
12.1738
12.2204
12.2665
12.3025
12.3256
12.3362
1
1
1
1
1
1
1
1
1
1
1
1
1
1
1
1
1
1
1
1
1
1
1
1
1
1
1
1
1
1
1
1
1
1
1
1
1
1
1
1
1
1
1
1
1
1
1
1
1
1
1
1
1
1
1
1
1
1
1
1
1
1
1
1
1
1
1
1
1
1
1
1
1
1
1
1
1
1
1
1
1
1
1
1
1
1
1
1
1
1
1
1
1
1
1
1
1
1
1
1
1
1
1
1
1
1
1
1
1.35386
7.67604
10.5898
10.618
10.6502
10.7153
10.7946
10.8872
10.9644
11.0281
11.0803
11.1238
11.1419
11.1465
11.1308
11.1178
11.1251
11.1519
11.1927
11.2512
11.304
11.3427
11.3784
11.4152
11.4562
11.4905
11.5101
11.5108
11.4975
11.4722
11.4512
11.4435
11.4717
11.5262
11.5878
11.641
11.6812
11.7125
11.7402
11.7661
11.7864
11.7978
11.7929
11.7692
11.739
11.713
11.7082
11.7359
11.7886
11.8579
11.9295
11.9896
12.031
12.0525
12.0587
12.0571
12.0558
12.0618
12.0788
12.1023
12.1239
12.1376
12.1405
12.1327
12.1208
12.1082
12.0966
12.0874
12.0826
12.0853
12.0976
12.1157
12.1313
12.1347
12.125
12.1139
12.1151
12.1341
12.1699
12.2158
12.2617
12.298
12.3213
12.3329
1
1
1
1
1
1
1
1
1
1
1
1
1
1
1
1
1
1
1
1
1
1
1
1
1
1
1
1
1
1
1
1
1
1
1
1
1
1
1
1
1
1
1
1
1
1
1
1
1
1
1
1
1
1
1
1
1
1
1
1
1
1
1
1
1
1
1
1
1
1
1
1
1
1
1
1
1
1
1
1
1
1
1
1
1
1
1
1
1
1
1
1
1
1
1
1
1
1
1
1
1
1
1
1
1
1
1
1
1.26215
7.41094
10.5732
10.6509
10.6932
10.757
10.8165
10.8877
10.9546
11.0183
11.0744
11.1195
11.1365
11.1418
11.13
11.1174
11.1247
11.1505
11.19
11.2452
11.2944
11.3332
11.3714
11.4127
11.4564
11.4915
11.5109
11.5098
11.494
11.4658
11.4434
11.4365
11.466
11.5221
11.5849
11.6379
11.6769
11.7071
11.7349
11.7619
11.7839
11.7961
11.7908
11.7664
11.7356
11.7097
11.706
11.7348
11.7882
11.8574
11.9281
11.9869
12.0268
12.0469
12.0522
12.0503
12.0493
12.0561
12.0742
12.0989
12.121
12.1343
12.1366
12.1285
12.1166
12.1046
12.0937
12.0847
12.0791
12.0799
12.0899
12.1067
12.1227
12.1284
12.1214
12.1121
12.1131
12.1307
12.1651
12.2103
12.2563
12.2932
12.3168
12.3298
1
1
1
1
1
1
1
1
1
1
1
1
1
1
1
1
1
1
1
1
1
1
1
1
1
1
1
1
1
1
1
1
1
1
1
1
1
1
1
1
1
1
1
1
1
1
1
1
1
1
1
1
1
1
1
1
1
1
1
1
1
1
1
1
1
1
1
1
1
1
1
1
1
1
1
1
1
1
1
1
1
1
1
1
1
1
1
1
1
1
1
1
1
1
1
1
1
1
1
1
1
1
1
1
1
1
1
1
1.15987
7.12846
10.6017
10.7063
10.7432
10.7827
10.8183
10.8785
10.9441
11.0103
11.071
11.1165
11.1318
11.1367
11.1295
11.1173
11.1239
11.1481
11.1852
11.2372
11.2832
11.3232
11.3648
11.4107
11.4571
11.4925
11.5106
11.508
11.4896
11.4586
11.4352
11.4301
11.4608
11.5183
11.5815
11.6335
11.6707
11.6996
11.7278
11.7565
11.7807
11.794
11.7883
11.7631
11.7314
11.7059
11.7036
11.7338
11.7879
11.857
11.9264
11.9832
12.0213
12.0402
12.0448
12.0427
12.0422
12.0497
12.0688
12.0948
12.1178
12.1312
12.1328
12.124
12.1115
12.0997
12.0897
12.0815
12.0756
12.0746
12.082
12.0968
12.1128
12.1207
12.1171
12.1098
12.1108
12.1272
12.1601
12.2047
12.2507
12.2881
12.3118
12.326
1
1
1
1
1
1
1
1
1
1
1
1
1
1
1
1
1
1
1
1
1
1
1
1
1
1
1
1
1
1
1
1
1
1
1
1
1
1
1
1
1
1
1
1
1
1
1
1
1
1
1
1
1
1
1
1
1
1
1
1
1
1
1
1
1
1
1
1
1
1
1
1
1
1
1
1
1
1
1
1
1
1
1
1
1
1
1
1
1
1
1
1
1
1
1
1
1
1
1
1
1
1
1
1
1
1
1
1
1.04987
6.89897
10.6558
10.746
10.7648
10.7847
10.812
10.8667
10.9345
11.0049
11.07
11.1139
11.1269
11.1301
11.1279
11.1176
11.1226
11.1444
11.1782
11.2274
11.2712
11.3133
11.3588
11.4091
11.4575
11.4934
11.5093
11.5053
11.484
11.451
11.4274
11.4245
11.4565
11.5148
11.5777
11.6281
11.6632
11.6908
11.7193
11.7499
11.7763
11.7907
11.7847
11.7589
11.7264
11.702
11.7017
11.7332
11.788
11.8565
11.924
11.9783
12.0146
12.0325
12.0369
12.0349
12.0348
12.0427
12.0622
12.0892
12.1135
12.1278
12.1295
12.1198
12.1061
12.0937
12.0844
12.0772
12.0717
12.0694
12.0745
12.087
12.1023
12.1119
12.1111
12.1059
12.1076
12.1234
12.1557
12.1998
12.2456
12.2827
12.3059
12.3205
1
1
1
1
1
1
1
1
1
1
1
1
1
1
1
1
1
1
1
1
1
1
1
1
1
1
1
1
1
1
1
1
1
1
1
1
1
1
1
1
1
1
1
1
1
1
1
1
1
1
1
1
1
1
1
1
1
1
1
1
1
1
1
1
1
1
1
1
1
1
1
1
1
1
1
1
1
1
1
1
1
1
1
1
1
1
1
1
1
1
1
1
1
1
1
1
1
1
1
1
1
1
1
1
1
1
1
1
1.00073
6.65447
10.6727
10.7596
10.7675
10.7765
10.8004
10.8559
10.9277
11.0021
11.0686
11.1086
11.1207
11.123
11.1238
11.117
11.1203
11.1392
11.1689
11.2162
11.2595
11.3046
11.3533
11.4068
11.4569
11.4931
11.5071
11.5012
11.4766
11.4431
11.4202
11.4196
11.4528
11.5113
11.5737
11.6224
11.6554
11.6817
11.7106
11.7425
11.7705
11.7855
11.779
11.753
11.7202
11.698
11.7005
11.7338
11.789
11.8561
11.9208
11.972
12.0063
12.0239
12.0289
12.0277
12.0279
12.0355
12.0544
12.0817
12.1074
12.1233
12.126
12.1161
12.1009
12.0874
12.0779
12.0715
12.0666
12.0639
12.0675
12.0781
12.0923
12.1023
12.103
12.0998
12.1029
12.1196
12.1522
12.1964
12.2413
12.277
12.2985
12.3124
1
1
1
1
1
1
1
1
1
1
1
1
1
1
1
1
1
1
1
1
1
1
1
1
1
1
1
1
1
1
1
1
1
1
1
1
1
1
1
1
1
1
1
1
1
1
1
1
1
1
1
1
1
1
1
1
1
1
1
1
1
1
1
1
1
1
1
1
1
1
1
1
1
1
1
1
1
1
1
1
1
1
1
1
1
1
1
1
1
1
1
1
1
1
1
1
1
1
1
1
1
1
1
1
1
1
1
1
1
6.36656
10.6617
10.7636
10.7622
10.7619
10.7864
10.8479
10.9238
11.0002
11.0643
11.0994
11.1132
11.1176
11.1178
11.1141
11.1171
11.1322
11.158
11.2042
11.249
11.2973
11.3483
11.4035
11.4546
11.4909
11.5031
11.4953
11.4681
11.4346
11.4133
11.4151
11.4493
11.5074
11.5691
11.6161
11.6475
11.6732
11.7026
11.7355
11.764
11.7785
11.771
11.7449
11.713
11.6938
11.7
11.7356
11.7908
11.8558
11.9167
11.9642
11.9963
12.0141
12.0206
12.021
12.0219
12.0287
12.0458
12.0722
12.0989
12.1169
12.1216
12.1125
12.0966
12.0816
12.071
12.0643
12.0597
12.0574
12.0606
12.0703
12.0831
12.0923
12.0933
12.0915
12.0968
12.1158
12.1499
12.1943
12.2378
12.271
12.2894
12.3013
1
1
1
1
1
1
1
1
1
1
1
1
1
1
1
1
1
1
1
1
1
1
1
1
1
1
1
1
1
1
1
1
1
1
1
1
1
1
1
1
1
1
1
1
1
1
1
1
1
1
1
1
1
1
1
1
1
1
1
1
1
1
1
1
1
1
1
1
1
1
1
1
1
1
1
1
1
1
1
1
1
1
1
1
1
1
1
1
1
1
1
1
1
1
1
1
1
1
1
1
1
1
1
1
1
1
1
1
1
6.06171
10.6384
10.7662
10.751
10.7443
10.775
10.8442
10.9204
10.9956
11.0554
11.0866
11.1042
11.114
11.1132
11.1092
11.1131
11.1244
11.1474
11.1919
11.2399
11.2908
11.3434
11.399
11.4502
11.4866
11.4971
11.487
11.4581
11.4253
11.4061
11.4103
11.4451
11.5023
11.563
11.6085
11.6391
11.6652
11.6958
11.7294
11.7576
11.7706
11.7613
11.7349
11.7044
11.6893
11.6996
11.7378
11.7929
11.8554
11.9121
11.9552
11.9849
12.003
12.0117
12.0146
12.0167
12.0226
12.0373
12.0615
12.0881
12.108
12.1154
12.1085
12.0929
12.0767
12.0644
12.0562
12.051
12.0492
12.0529
12.0626
12.0742
12.0822
12.0826
12.0818
12.0899
12.1119
12.1483
12.1931
12.2346
12.2644
12.2787
12.2877
1
1
1
1
1
1
1
1
1
1
1
1
1
1
1
1
1
1
1
1
1
1
1
1
1
1
1
1
1
1
1
1
1
1
1
1
1
1
1
1
1
1
1
1
1
1
1
1
1
1
1
1
1
1
1
1
1
1
1
1
1
1
1
1
1
1
1
1
1
1
1
1
1
1
1
1
1
1
1
1
1
1
1
1
1
1
1
1
1
1
1
1
1
1
1
1
1
1
1
1
1
1
1
1
1
1
1
1
1
5.74851
10.6115
10.7586
10.7346
10.7334
10.7698
10.8418
10.9135
10.9854
11.042
11.073
11.0959
11.111
11.1106
11.1044
11.1082
11.1169
11.1383
11.1801
11.2309
11.2843
11.3384
11.3939
11.4446
11.4808
11.4892
11.4766
11.4468
11.4154
11.3987
11.4049
11.4396
11.4953
11.5549
11.5992
11.6297
11.6573
11.6896
11.7243
11.7516
11.7627
11.7511
11.7242
11.6955
11.6846
11.6991
11.7396
11.7944
11.8544
11.9069
11.9456
11.9725
11.9908
12.002
12.0077
12.0115
12.0169
12.029
12.0504
12.0758
12.0967
12.1068
12.1032
12.0891
12.0727
12.0586
12.0481
12.0413
12.0392
12.0436
12.0538
12.0648
12.0717
12.0718
12.0721
12.083
12.1082
12.1466
12.1917
12.231
12.2568
12.2667
12.2722
1
1
1
1
1
1
1
1
1
1
1
1
1
1
1
1
1
1
1
1
1
1
1
1
1
1
1
1
1
1
1
1
1
1
1
1
1
1
1
1
1
1
1
1
1
1
1
1
1
1
1
1
1
1
1
1
1
1
1
1
1
1
1
1
1
1
1
1
1
1
1
1
1
1
1
1
1
1
1
1
1
1
1
1
1
1
1
1
1
1
1
1
1
1
1
1
1
1
1
1
1
1
1
1
1
1
1
1
1
5.42598
10.5723
10.7378
10.7216
10.7327
10.7686
10.8357
10.9026
10.9709
11.0257
11.0595
11.0894
11.1081
11.1075
11.1006
11.1037
11.1107
11.1296
11.1699
11.222
11.2773
11.3333
11.3891
11.4387
11.4739
11.4795
11.4644
11.4349
11.4054
11.3911
11.3986
11.4325
11.4861
11.5445
11.5879
11.6191
11.6486
11.6832
11.719
11.7458
11.755
11.7415
11.7143
11.6879
11.6808
11.6986
11.7402
11.7942
11.852
11.9007
11.9354
11.9598
11.9781
11.9916
12
12.0054
12.0107
12.0208
12.0397
12.0632
12.084
12.0963
12.0962
12.0846
12.0688
12.0536
12.0406
12.0313
12.0278
12.032
12.0428
12.0539
12.0608
12.0615
12.0636
12.0771
12.1048
12.1445
12.1894
12.2261
12.2482
12.2535
12.2557
1
1
1
1
1
1
1
1
1
1
1
1
1
1
1
1
1
1
1
1
1
1
1
1
1
1
1
1
1
1
1
1
1
1
1
1
1
1
1
1
1
1
1
1
1
1
1
1
1
1
1
1
1
1
1
1
1
1
1
1
1
1
1
1
1
1
1
1
1
1
1
1
1
1
1
1
1
1
1
1
1
1
1
1
1
1
1
1
1
1
1
1
1
1
1
1
1
1
1
1
1
1
1
1
1
1
1
1
1
5.08573
10.5145
10.7193
10.716
10.7338
10.7653
10.8244
10.889
10.9541
11.0094
11.0478
11.0831
11.1053
11.1025
11.0984
11.0999
11.1037
11.1213
11.1614
11.2128
11.2701
11.3284
11.3847
11.4325
11.4659
11.4687
11.4519
11.4239
11.3964
11.3837
11.3915
11.4237
11.4748
11.532
11.5751
11.6074
11.6391
11.6756
11.7124
11.7388
11.7469
11.7329
11.7058
11.6831
11.6791
11.6983
11.7392
11.7916
11.8471
11.8929
11.9245
11.9471
11.9656
11.9808
11.9912
11.9979
12.0032
12.0119
12.029
12.051
12.0712
12.0849
12.0875
12.0784
12.0643
12.0487
12.0337
12.0217
12.0157
12.0183
12.0288
12.0405
12.0489
12.0522
12.0569
12.0725
12.1014
12.1412
12.1848
12.2191
12.2379
12.2397
12.2394
1
1
1
1
1
1
1
1
1
1
1
1
1
1
1
1
1
1
1
1
1
1
1
1
1
1
1
1
1
1
1
1
1
1
1
1
1
1
1
1
1
1
1
1
1
1
1
1
1
1
1
1
1
1
1
1
1
1
1
1
1
1
1
1
1
1
1
1
1
1
1
1
1
1
1
1
1
1
1
1
1
1
1
1
1
1
1
1
1
1
1
1
1
1
1
1
1
1
1
1
1
1
1
1
1
1
1
1
1
4.72884
10.4407
10.7112
10.7088
10.7302
10.7562
10.8096
10.873
10.9374
10.9938
11.0392
11.0774
11.1011
11.0959
11.0962
11.0952
11.0949
11.114
11.1532
11.2035
11.2628
11.3235
11.3804
11.4264
11.4553
11.4572
11.4403
11.4149
11.389
11.3766
11.3836
11.4133
11.4616
11.5181
11.562
11.5958
11.6292
11.6665
11.7034
11.7296
11.7374
11.7247
11.6994
11.682
11.6803
11.6988
11.7369
11.7863
11.8393
11.8827
11.9124
11.9345
11.9536
11.9701
11.9816
11.9888
11.9939
12.0017
12.0179
12.0395
12.0595
12.0735
12.0777
12.0708
12.0583
12.043
12.0269
12.0126
12.0034
12.0031
12.0121
12.0243
12.0356
12.0434
12.0519
12.0694
12.0983
12.1364
12.1777
12.2093
12.2259
12.2258
12.2244
1
1
1
1
1
1
1
1
1
1
1
1
1
1
1
1
1
1
1
1
1
1
1
1
1
1
1
1
1
1
1
1
1
1
1
1
1
1
1
1
1
1
1
1
1
1
1
1
1
1
1
1
1
1
1
1
1
1
1
1
1
1
1
1
1
1
1
1
1
1
1
1
1
1
1
1
1
1
1
1
1
1
1
1
1
1
1
1
1
1
1
1
1
1
1
1
1
1
1
1
1
1
1
1
1
1
1
1
1
4.36141
10.3549
10.7053
10.6977
10.7215
10.7438
10.7949
10.8542
10.9196
10.9802
11.0323
11.0735
11.0947
11.0912
11.0936
11.089
11.0871
11.1066
11.1449
11.1947
11.255
11.3179
11.3741
11.4185
11.4425
11.4446
11.4304
11.4084
11.3836
11.3699
11.375
11.4009
11.4465
11.5031
11.5493
11.5854
11.6201
11.6569
11.6923
11.7174
11.7253
11.7158
11.6952
11.6839
11.6841
11.7004
11.7342
11.779
11.8285
11.8697
11.8986
11.9214
11.942
11.9596
11.9714
11.9782
11.9825
11.9897
12.0061
12.0285
12.0491
12.0631
12.0676
12.0619
12.0503
12.0356
12.0193
12.0035
11.9912
11.9872
11.9935
12.0057
12.0207
12.0344
12.048
12.0676
12.0957
12.1309
12.1688
12.1975
12.2127
12.2119
12.2106
1
1
1
1
1
1
1
1
1
1
1
1
1
1
1
1
1
1
1
1
1
1
1
1
1
1
1
1
1
1
1
1
1
1
1
1
1
1
1
1
1
1
1
1
1
1
1
1
1
1
1
1
1
1
1
1
1
1
1
1
1
1
1
1
1
1
1
1
1
1
1
1
1
1
1
1
1
1
1
1
1
1
1
1
1
1
1
1
1
1
1
1
1
1
1
1
1
1
1
1
1
1
1
1
1
1
1
1
1
3.98839
10.2522
10.6981
10.6838
10.7088
10.7322
10.7792
10.8349
10.9039
10.9679
11.0267
11.0716
11.0871
11.09
11.0891
11.08
11.0803
11.0995
11.1366
11.1872
11.2477
11.311
11.3648
11.4072
11.4279
11.4323
11.4229
11.4041
11.3796
11.3632
11.3651
11.3863
11.4291
11.487
11.5368
11.5764
11.6124
11.6476
11.68
11.7028
11.7105
11.7057
11.6927
11.6879
11.6894
11.703
11.7313
11.7705
11.8156
11.8543
11.8831
11.9078
11.9305
11.9492
11.961
11.9665
11.9695
11.9763
11.9934
12.0175
12.0396
12.0538
12.0579
12.0518
12.0402
12.026
12.0102
11.9938
11.9792
11.9714
11.9743
11.9857
12.0042
12.0247
12.0441
12.066
12.0929
12.1247
12.1583
12.184
12.1982
12.1976
12.1975
1
1
1
1
1
1
1
1
1
1
1
1
1
1
1
1
1
1
1
1
1
1
1
1
1
1
1
1
1
1
1
1
1
1
1
1
1
1
1
1
1
1
1
1
1
1
1
1
1
1
1
1
1
1
1
1
1
1
1
1
1
1
1
1
1
1
1
1
1
1
1
1
1
1
1
1
1
1
1
1
1
1
1
1
1
1
1
1
1
1
1
1
1
1
1
1
1
1
1
1
1
1
1
1
1
1
1
1
1
3.60959
10.1194
10.6925
10.6736
10.695
10.7232
10.7623
10.8186
10.8896
10.9585
11.0204
11.0676
11.0799
11.0873
11.0828
11.0725
11.0733
11.0937
11.1277
11.18
11.2407
11.3016
11.3526
11.3927
11.4134
11.4214
11.4169
11.4008
11.3763
11.3562
11.354
11.3696
11.4098
11.4695
11.5243
11.5682
11.6058
11.6391
11.6674
11.687
11.6948
11.695
11.6912
11.6922
11.6942
11.7053
11.728
11.7612
11.8012
11.8374
11.8666
11.8936
11.9187
11.9384
11.9499
11.954
11.9555
11.9619
11.9801
12.0064
12.0303
12.0453
12.0487
12.0409
12.0282
12.0141
11.999
11.9829
11.967
11.956
11.9553
11.9653
11.9866
12.0136
12.0391
12.0636
12.0895
12.1177
12.1469
12.1695
12.1827
12.1831
12.1847
1
1
1
1
1
1
1
1
1
1
1
1
1
1
1
1
1
1
1
1
1
1
1
1
1
1
1
1
1
1
1
1
1
1
1
1
1
1
1
1
1
1
1
1
1
1
1
1
1
1
1
1
1
1
1
1
1
1
1
1
1
1
1
1
1
1
1
1
1
1
1
1
1
1
1
1
1
1
1
1
1
1
1
1
1
1
1
1
1
1
1
1
1
1
1
1
1
1
1
1
1
1
1
1
1
1
1
1
1
3.22291
9.94004
10.6921
10.6674
10.684
10.7074
10.7438
10.8035
10.8775
10.9525
11.0143
11.0604
11.0735
11.0821
11.0761
11.0655
11.068
11.089
11.1196
11.1709
11.2324
11.2891
11.338
11.3765
11.4008
11.4127
11.4119
11.3975
11.3731
11.3484
11.3415
11.3517
11.3891
11.4512
11.5113
11.5598
11.599
11.6301
11.6543
11.6713
11.6802
11.6857
11.691
11.6959
11.6971
11.7059
11.7237
11.7507
11.7859
11.82
11.8501
11.8793
11.9065
11.9268
11.9377
11.9403
11.9409
11.947
11.9665
11.9952
12.0211
12.0369
12.0393
12.0294
12.0149
12.0003
11.9857
11.9704
11.9542
11.941
11.937
11.9454
11.9686
12.0014
12.0326
12.0595
12.085
12.1099
12.1349
12.1541
12.1663
12.1678
12.1714
1
1
1
1
1
1
1
1
1
1
1
1
1
1
1
1
1
1
1
1
1
1
1
1
1
1
1
1
1
1
1
1
1
1
1
1
1
1
1
1
1
1
1
1
1
1
1
1
1
1
1
1
1
1
1
1
1
1
1
1
1
1
1
1
1
1
1
1
1
1
1
1
1
1
1
1
1
1
1
1
1
1
1
1
1
1
1
1
1
1
1
1
1
1
1
1
1
1
1
1
1
1
1
1
1
1
1
1
1
2.84483
9.70812
10.6759
10.6613
10.6749
10.69
10.7294
10.791
10.8694
10.9458
11.0067
11.0509
11.0678
11.0758
11.0689
11.0593
11.0651
11.0834
11.1116
11.1592
11.2197
11.2736
11.3217
11.3609
11.3898
11.4061
11.4081
11.394
11.3687
11.3398
11.3278
11.3335
11.3687
11.4331
11.4979
11.55
11.59
11.619
11.6401
11.656
11.6682
11.6797
11.6915
11.6978
11.6974
11.7035
11.7168
11.7384
11.7696
11.8027
11.8342
11.8655
11.8941
11.9144
11.9241
11.9254
11.9253
11.9317
11.9527
11.984
12.0118
12.0281
12.0293
12.0171
12.0004
11.985
11.9706
11.9563
11.9405
11.9259
11.9191
11.9259
11.9505
11.9882
12.0246
12.0538
12.0791
12.1014
12.1222
12.1383
12.1493
12.1518
12.1573
1
1
1
1
1
1
1
1
1
1
1
1
1
1
1
1
1
1
1
1
1
1
1
1
1
1
1
1
1
1
1
1
1
1
1
1
1
1
1
1
1
1
1
1
1
1
1
1
1
1
1
1
1
1
1
1
1
1
1
1
1
1
1
1
1
1
1
1
1
1
1
1
1
1
1
1
1
1
1
1
1
1
1
1
1
1
1
1
1
1
1
1
1
1
1
1
1
1
1
1
1
1
1
1
1
1
1
1
1
2.49276
9.41314
10.6479
10.6616
10.6676
10.6851
10.7219
10.7844
10.8599
10.9375
10.9977
11.0417
11.0606
11.0696
11.0618
11.0564
11.0617
11.0741
11.1011
11.1452
11.2029
11.2559
11.3047
11.3462
11.3801
11.401
11.404
11.3903
11.3625
11.3297
11.3129
11.3157
11.35
11.4169
11.4847
11.5385
11.5777
11.6044
11.6243
11.6421
11.66
11.6774
11.6925
11.6979
11.6946
11.6975
11.7068
11.724
11.7525
11.7856
11.819
11.8523
11.8816
11.9012
11.9094
11.9094
11.9088
11.9158
11.9385
11.9723
12.0021
12.0186
12.0186
12.004
11.9849
11.9684
11.9544
11.9411
11.9258
11.9103
11.9012
11.9067
11.9323
11.9745
12.0154
12.0469
12.0722
12.0919
12.1087
12.1217
12.1315
12.1349
12.1421
1
1
1
1
1
1
1
1
1
1
1
1
1
1
1
1
1
1
1
1
1
1
1
1
1
1
1
1
1
1
1
1
1
1
1
1
1
1
1
1
1
1
1
1
1
1
1
1
1
1
1
1
1
1
1
1
1
1
1
1
1
1
1
1
1
1
1
1
1
1
1
1
1
1
1
1
1
1
1
1
1
1
1
1
1
1
1
1
1
1
1
1
1
1
1
1
1
1
1
1
1
1
1
1
1
1
1
1
1
2.15942
9.04274
10.6251
10.6517
10.663
10.6841
10.7198
10.7773
10.8485
10.9266
10.9885
11.0311
11.0539
11.0634
11.0566
11.0571
11.0564
11.0619
11.0856
11.1298
11.1842
11.2382
11.2893
11.3338
11.3714
11.3957
11.3978
11.3852
11.3542
11.3179
11.297
11.2993
11.3341
11.4033
11.472
11.5252
11.5619
11.5862
11.6072
11.6301
11.6554
11.6777
11.694
11.6972
11.6898
11.6886
11.6938
11.7075
11.7346
11.7685
11.804
11.8389
11.8687
11.8874
11.8941
11.8927
11.8915
11.8991
11.9234
11.9594
11.9914
12.0084
12.0072
11.9903
11.9688
11.9512
11.9374
11.9249
11.9101
11.8936
11.8824
11.887
11.9141
11.9601
12.0055
12.0394
12.0645
12.0814
12.0942
12.1041
12.1129
12.1171
12.1259
1
1
1
1
1
1
1
1
1
1
1
1
1
1
1
1
1
1
1
1
1
1
1
1
1
1
1
1
1
1
1
1
1
1
1
1
1
1
1
1
1
1
1
1
1
1
1
1
1
1
1
1
1
1
1
1
1
1
1
1
1
1
1
1
1
1
1
1
1
1
1
1
1
1
1
1
1
1
1
1
1
1
1
1
1
1
1
1
1
1
1
1
1
1
1
1
1
1
1
1
1
1
1
1
1
1
1
1
1
1.84085
8.59678
10.6203
10.6459
10.6575
10.6818
10.7155
10.7663
10.8381
10.9149
10.9788
11.0206
11.0486
11.0561
11.0552
11.0534
11.0483
11.0502
11.0694
11.115
11.166
11.2231
11.2769
11.3236
11.3637
11.3885
11.3887
11.3774
11.3434
11.3044
11.2813
11.2853
11.3212
11.3916
11.4591
11.5101
11.5435
11.5665
11.591
11.6211
11.6531
11.6785
11.6942
11.694
11.6829
11.6772
11.6787
11.6902
11.7166
11.7515
11.7887
11.8246
11.8543
11.8725
11.8783
11.8759
11.8741
11.8818
11.9067
11.9444
11.9788
11.997
11.9953
11.9765
11.9526
11.9336
11.9199
11.9078
11.8932
11.8758
11.8624
11.8665
11.8955
11.9453
11.995
12.0315
12.0562
12.0699
12.0784
12.0853
12.0932
12.0983
12.1087
1
1
1
1
1
1
1
1
1
1
1
1
1
1
1
1
1
1
1
1
1
1
1
1
1
1
1
1
1
1
1
1
1
1
1
1
1
1
1
1
1
1
1
1
1
1
1
1
1
1
1
1
1
1
1
1
1
1
1
1
1
1
1
1
1
1
1
1
1
1
1
1
1
1
1
1
1
1
1
1
1
1
1
1
1
1
1
1
1
1
1
1
1
1
1
1
1
1
1
1
1
1
1
1
1
1
1
1
1
1.54401
8.07779
10.6283
10.6615
10.6666
10.684
10.711
10.7564
10.8279
10.9034
10.9683
11.0126
11.0423
11.05
11.0536
11.0433
11.0368
11.0375
11.0564
11.1008
11.1498
11.2107
11.2672
11.3153
11.3568
11.3798
11.3774
11.3651
11.3294
11.2894
11.2679
11.2742
11.3109
11.3808
11.445
11.4924
11.5235
11.5477
11.5781
11.6156
11.6519
11.6784
11.6918
11.6877
11.6732
11.664
11.6631
11.6734
11.6996
11.7349
11.7726
11.8082
11.8376
11.8558
11.8618
11.8596
11.8575
11.8646
11.8887
11.9267
11.9633
11.9836
11.9827
11.963
11.937
11.916
11.9018
11.8897
11.875
11.8567
11.8413
11.8452
11.8766
11.9301
11.9842
12.0231
12.0471
12.0571
12.0612
12.0653
12.0725
12.0788
12.0908
1
1
1
1
1
1
1
1
1
1
1
1
1
1
1
1
1
1
1
1
1
1
1
1
1
1
1
1
1
1
1
1
1
1
1
1
1
1
1
1
1
1
1
1
1
1
1
1
1
1
1
1
1
1
1
1
1
1
1
1
1
1
1
1
1
1
1
1
1
1
1
1
1
1
1
1
1
1
1
1
1
1
1
1
1
1
1
1
1
1
1
1
1
1
1
1
1
1
1
1
1
1
1
1
1
1
1
1
1
1.24789
7.42393
10.6221
10.6763
10.6653
10.6816
10.7054
10.7472
10.818
10.8916
10.9571
11.0061
11.0344
11.0453
11.0452
11.0349
11.0256
11.0244
11.0452
11.0851
11.135
11.1989
11.2567
11.3072
11.3497
11.3689
11.3635
11.3481
11.3135
11.2738
11.2575
11.2656
11.3022
11.3689
11.4285
11.4723
11.5029
11.5318
11.5699
11.6133
11.6514
11.6765
11.6862
11.6779
11.6605
11.6489
11.6472
11.6578
11.6843
11.7194
11.7561
11.7898
11.818
11.8364
11.8438
11.8435
11.8421
11.8484
11.8701
11.9065
11.9444
11.9676
11.9689
11.95
11.9225
11.8989
11.8832
11.8701
11.855
11.8357
11.8191
11.8233
11.8575
11.9147
11.973
12.0138
12.0366
12.0429
12.0427
12.0441
12.051
12.0585
12.0722
1
1
1
1
1
1
1
1
1
1
1
1
1
1
1
1
1
1
1
1
1
1
1
1
1
1
1
1
1
1
1
1
1
1
1
1
1
1
1
1
1
1
1
1
1
1
1
1
1
1
1
1
1
1
1
1
1
1
1
1
1
1
1
1
1
1
1
1
1
1
1
1
1
1
1
1
1
1
1
1
1
1
1
1
1
1
1
1
1
1
1
1
1
1
1
1
1
1
1
1
1
1
1
1
1
1
1
1
1
1.0133
6.68136
10.6368
10.6887
10.6647
10.6771
10.6964
10.739
10.8078
10.8804
10.9464
10.9979
11.0253
11.0394
11.0351
11.0274
11.0136
11.0123
11.0341
11.0681
11.1198
11.1851
11.2429
11.2971
11.3398
11.3557
11.3476
11.3287
11.2977
11.2586
11.2484
11.2581
11.2934
11.3547
11.4094
11.4507
11.4833
11.5194
11.5648
11.6126
11.651
11.6732
11.6784
11.6655
11.6454
11.6324
11.6313
11.6433
11.6705
11.7051
11.7395
11.7698
11.7955
11.8139
11.8235
11.8267
11.8279
11.8337
11.8519
11.8851
11.9229
11.9485
11.9533
11.9371
11.9088
11.8823
11.8639
11.8488
11.8326
11.8125
11.7957
11.8015
11.8388
11.8995
11.9612
12.0033
12.0244
12.0268
12.0226
12.0219
12.0287
12.0378
12.053
1
1
1
1
1
1
1
1
1
1
1
1
1
1
1
1
1
1
1
1
1
1
1
1
1
1
1
1
1
1
1
1
1
1
1
1
1
1
1
1
1
1
1
1
1
1
1
1
1
1
1
1
1
1
1
1
1
1
1
1
1
1
1
1
1
1
1
1
1
1
1
1
1
1
1
1
1
1
1
1
1
1
1
1
1
1
1
1
1
1
1
1
1
1
1
1
1
1
1
1
1
1
1
1
1
1
1
1
1
1.0001
5.82158
10.616
10.6886
10.6648
10.6728
10.6896
10.7297
10.7958
10.8675
10.9353
10.9866
11.0158
11.03
11.0286
11.0204
11.0048
11.0044
11.0237
11.0523
11.1052
11.1691
11.2273
11.283
11.3238
11.3391
11.331
11.3105
11.2837
11.2447
11.2379
11.2491
11.282
11.3376
11.3891
11.4302
11.4661
11.5088
11.5595
11.6101
11.6483
11.6682
11.6691
11.6524
11.6297
11.6153
11.6151
11.629
11.6571
11.691
11.7227
11.7489
11.7711
11.7889
11.801
11.8087
11.8138
11.8201
11.8347
11.8635
11.8996
11.9269
11.9353
11.923
11.8953
11.8662
11.8444
11.8261
11.8078
11.787
11.7714
11.7801
11.821
11.8848
11.9488
11.9909
12.0097
12.0085
12.0009
11.9986
12.0057
12.0167
12.0332
1
1
1
1
1
1
1
1
1
1
1
1
1
1
1
1
1
1
1
1
1
1
1
1
1
1
1
1
1
1
1
1
1
1
1
1
1
1
1
1
1
1
1
1
1
1
1
1
1
1
1
1
1
1
1
1
1
1
1
1
1
1
1
1
1
1
1
1
1
1
1
1
1
1
1
1
1
1
1
1
1
1
1
1
1
1
1
1
1
1
1
1
1
1
1
1
1
1
1
1
1
1
1
1
1
1
1
1
1
1
4.98528
10.5207
10.6876
10.6687
10.6721
10.6842
10.7205
10.7834
10.8546
10.924
10.9738
11.0077
11.0206
11.024
11.0142
10.9997
11.0009
11.015
11.0408
11.0922
11.1528
11.2096
11.2637
11.302
11.3191
11.3154
11.2977
11.2723
11.2335
11.2263
11.236
11.2642
11.3169
11.3694
11.414
11.4532
11.4987
11.5506
11.6019
11.6403
11.6595
11.6585
11.64
11.6153
11.5992
11.5989
11.6139
11.6424
11.6756
11.7048
11.7273
11.746
11.7627
11.7772
11.7893
11.7983
11.8063
11.8183
11.8424
11.8759
11.9038
11.9151
11.9071
11.8813
11.8504
11.825
11.8025
11.7809
11.7591
11.746
11.759
11.8039
11.8703
11.9354
11.9767
11.9927
11.9881
11.9776
11.9743
11.9821
11.9954
12.0128
1
1
1
1
1
1
1
1
1
1
1
1
1
1
1
1
1
1
1
1
1
1
1
1
1
1
1
1
1
1
1
1
1
1
1
1
1
1
1
1
1
1
1
1
1
1
1
1
1
1
1
1
1
1
1
1
1
1
1
1
1
1
1
1
1
1
1
1
1
1
1
1
1
1
1
1
1
1
1
1
1
1
1
1
1
1
1
1
1
1
1
1
1
1
1
1
1
1
1
1
1
1
1
1
1
1
1
1
1
1
4.21064
10.3239
10.6909
10.6675
10.6703
10.6776
10.7111
10.7703
10.8425
10.9132
10.9652
10.9999
11.0114
11.0172
11.007
10.9959
10.9964
11.0063
11.0303
11.0791
11.136
11.1892
11.2393
11.277
11.2986
11.3035
11.2923
11.2642
11.2275
11.215
11.2179
11.2401
11.2942
11.3524
11.4039
11.4463
11.4905
11.5385
11.5867
11.6244
11.6447
11.6456
11.6282
11.6033
11.5855
11.5837
11.5978
11.6253
11.6574
11.6847
11.7045
11.7209
11.7371
11.7533
11.7687
11.7808
11.7907
11.8014
11.8219
11.8525
11.8801
11.8933
11.889
11.866
11.8341
11.8053
11.7781
11.7524
11.7294
11.7197
11.738
11.787
11.8555
11.9208
11.9607
11.9737
11.9658
11.953
11.949
11.9576
11.9734
11.9915
1
1
1
1
1
1
1
1
1
1
1
1
1
1
1
1
1
1
1
1
1
1
1
1
1
1
1
1
1
1
1
1
1
1
1
1
1
1
1
1
1
1
1
1
1
1
1
1
1
1
1
1
1
1
1
1
1
1
1
1
1
1
1
1
1
1
1
1
1
1
1
1
1
1
1
1
1
1
1
1
1
1
1
1
1
1
1
1
1
1
1
1
1
1
1
1
1
1
1
1
1
1
1
1
1
1
1
1
1
1
3.49783
10.0256
10.6895
10.6709
10.6718
10.6769
10.7067
10.7601
10.8315
10.9029
10.9597
10.9924
11.0054
11.0093
10.998
10.9892
10.9868
10.9945
11.0168
11.0642
11.1175
11.1677
11.2133
11.2508
11.2788
11.2938
11.2915
11.2611
11.2273
11.2057
11.1976
11.2149
11.2714
11.3382
11.3985
11.4439
11.4847
11.5253
11.5667
11.6016
11.6235
11.6289
11.6159
11.593
11.5744
11.5705
11.5817
11.6059
11.6356
11.6613
11.6797
11.6957
11.7128
11.7309
11.7478
11.7616
11.7723
11.7824
11.8009
11.8291
11.8567
11.8708
11.8692
11.8488
11.8165
11.7848
11.7532
11.7236
11.6994
11.693
11.7168
11.7696
11.8392
11.9041
11.9427
11.953
11.9423
11.9275
11.9229
11.932
11.9503
11.9688
1
1
1
1
1
1
1
1
1
1
1
1
1
1
1
1
1
1
1
1
1
1
1
1
1
1
1
1
1
1
1
1
1
1
1
1
1
1
1
1
1
1
1
1
1
1
1
1
1
1
1
1
1
1
1
1
1
1
1
1
1
1
1
1
1
1
1
1
1
1
1
1
1
1
1
1
1
1
1
1
1
1
1
1
1
1
1
1
1
1
1
1
1
1
1
1
1
1
1
1
1
1
1
1
1
1
1
1
1
1
2.8374
9.61889
10.6824
10.6738
10.6744
10.6794
10.7026
10.7475
10.8184
10.8922
10.9536
10.9855
10.9994
11.0002
10.9876
10.9796
10.9734
10.9787
10.9992
11.0447
11.0959
11.145
11.1874
11.2252
11.2589
11.2836
11.29
11.2617