/*--------------------------------*- C++ -*----------------------------------*\
  =========                 |
  \\      /  F ield         | OpenFOAM: The Open Source CFD Toolbox
   \\    /   O peration     | Website:  https://openfoam.org
    \\  /    A nd           | Version:  7
     \\/     M anipulation  |
\*---------------------------------------------------------------------------*/
FoamFile
{
    version     2.0;
    format      ascii;
    class       volScalarField;
    location    "1";
    object      rho;
}
// * * * * * * * * * * * * * * * * * * * * * * * * * * * * * * * * * * * * * //

dimensions      [1 -3 0 0 0 0 0];

internalField   nonuniform List<scalar> 
258048
(
1.40001
1.40001
1.40001
1.40001
1.40001
1.40001
1.40001
1.40001
1.40001
1.40001
1.40001
1.40001
1.40001
1.40001
1.40001
1.40001
1.40001
1.40001
1.40001
1.40001
1.40001
1.40001
1.40001
1.40001
1.40001
1.40001
1.40001
1.40001
1.40001
1.40001
1.40001
1.40001
1.40001
1.40001
1.40001
1.40001
1.40001
1.40001
1.40001
1.40001
1.40001
1.40001
1.40001
1.40001
1.40001
1.40001
1.40001
1.40001
1.40001
1.40001
1.40001
1.40001
1.40001
1.40001
1.40001
1.40001
1.40001
1.40001
1.40001
1.40001
1.40001
1.40001
1.40001
1.40001
1.40001
1.40001
1.40001
1.40001
1.40001
1.40001
1.40001
1.40001
1.40001
1.40001
1.40001
1.40001
1.40001
1.40001
1.40001
1.40001
1.40001
1.40001
1.40001
1.40001
1.40001
1.40001
1.40001
1.40001
1.40001
1.40001
1.40001
1.40001
1.40001
1.40001
1.40001
1.40001
1.40001
1.40001
1.40001
1.40001
1.40001
1.40001
1.40001
1.40001
1.40001
1.40001
1.40001
1.40001
1.77025
4.68509
5.5291
5.49802
5.46023
5.43239
5.43156
5.45188
5.48745
5.5276
5.56578
5.59752
5.62476
5.64274
5.64423
5.63546
5.62386
5.61247
5.61008
5.62383
5.64733
5.67131
5.69401
5.71354
5.73003
5.73992
5.73884
5.72958
5.71916
5.71025
5.70572
5.70658
5.71573
5.73423
5.75313
5.76832
5.78
5.78982
5.79918
5.80792
5.81411
5.81686
5.81441
5.80537
5.79288
5.78058
5.7753
5.78164
5.7981
5.82004
5.84199
5.85986
5.87292
5.88149
5.88596
5.88726
5.88684
5.8862
5.8865
5.88796
5.88974
5.89059
5.88997
5.88761
5.88399
5.87947
5.87424
5.86823
5.86198
5.85691
5.85405
5.85294
5.85117
5.84385
5.82614
5.79764
5.75615
5.69292
5.59828
5.47269
5.3364
5.22449
5.16226
5.14584
1.40001
1.40001
1.40001
1.40001
1.40001
1.40001
1.40001
1.40001
1.40001
1.40001
1.40001
1.40001
1.40001
1.40001
1.40001
1.40001
1.40001
1.40001
1.40001
1.40001
1.40001
1.40001
1.40001
1.40001
1.40001
1.40001
1.40001
1.40001
1.40001
1.40001
1.40001
1.40001
1.40001
1.40001
1.40001
1.40001
1.40001
1.40001
1.40001
1.40001
1.40001
1.40001
1.40001
1.40001
1.40001
1.40001
1.40001
1.40001
1.40001
1.40001
1.40001
1.40001
1.40001
1.40001
1.40001
1.40001
1.40001
1.40001
1.40001
1.40001
1.40001
1.40001
1.40001
1.40001
1.40001
1.40001
1.40001
1.40001
1.40001
1.40001
1.40001
1.40001
1.40001
1.40001
1.40001
1.40001
1.40001
1.40001
1.40001
1.40001
1.40001
1.40001
1.40001
1.40001
1.40001
1.40001
1.40001
1.40001
1.40001
1.40001
1.40001
1.40001
1.40001
1.40001
1.40001
1.40001
1.40001
1.40001
1.40001
1.40001
1.40001
1.40001
1.40001
1.40001
1.40001
1.40001
1.40001
1.40001
1.76416
4.6744
5.52349
5.49577
5.45931
5.43354
5.4333
5.45408
5.48927
5.52905
5.56623
5.5979
5.62544
5.64311
5.6439
5.6348
5.6231
5.6124
5.61029
5.62416
5.64752
5.67103
5.69346
5.71299
5.72973
5.7398
5.73858
5.72973
5.71931
5.71018
5.70545
5.70623
5.71544
5.73398
5.75295
5.76821
5.77988
5.7897
5.7991
5.80787
5.81403
5.81667
5.8141
5.80496
5.7925
5.78038
5.77534
5.78187
5.7984
5.82045
5.84251
5.86043
5.87337
5.88161
5.88557
5.88645
5.88586
5.88534
5.88607
5.88809
5.89027
5.89131
5.89046
5.88761
5.88356
5.87875
5.87348
5.86765
5.86171
5.85693
5.85427
5.85314
5.85107
5.84326
5.8251
5.79644
5.75514
5.69228
5.59798
5.47253
5.33617
5.22404
5.16157
5.14472
1.40001
1.40001
1.40001
1.40001
1.40001
1.40001
1.40001
1.40001
1.40001
1.40001
1.40001
1.40001
1.40001
1.40001
1.40001
1.40001
1.40001
1.40001
1.40001
1.40001
1.40001
1.40001
1.40001
1.40001
1.40001
1.40001
1.40001
1.40001
1.40001
1.40001
1.40001
1.40001
1.40001
1.40001
1.40001
1.40001
1.40001
1.40001
1.40001
1.40001
1.40001
1.40001
1.40001
1.40001
1.40001
1.40001
1.40001
1.40001
1.40001
1.40001
1.40001
1.40001
1.40001
1.40001
1.40001
1.40001
1.40001
1.40001
1.40001
1.40001
1.40001
1.40001
1.40001
1.40001
1.40001
1.40001
1.40001
1.40001
1.40001
1.40001
1.40001
1.40001
1.40001
1.40001
1.40001
1.40001
1.40001
1.40001
1.40001
1.40001
1.40001
1.40001
1.40001
1.40001
1.40001
1.40001
1.40001
1.40001
1.40001
1.40001
1.40001
1.40001
1.40001
1.40001
1.40001
1.40001
1.40001
1.40001
1.40001
1.40001
1.40001
1.40001
1.40001
1.40001
1.40001
1.40001
1.40001
1.40001
1.75118
4.65812
5.51925
5.49267
5.45839
5.43496
5.43474
5.45644
5.49158
5.53118
5.56714
5.59864
5.62613
5.6433
5.643
5.63348
5.62208
5.61212
5.61032
5.62454
5.64782
5.67071
5.69266
5.71201
5.72902
5.73932
5.73801
5.72958
5.71926
5.70989
5.70493
5.70563
5.7149
5.73349
5.75261
5.76796
5.77958
5.78933
5.79872
5.80751
5.81369
5.81626
5.81353
5.80417
5.79159
5.77953
5.77467
5.78138
5.79795
5.82024
5.84266
5.86087
5.8738
5.88158
5.88475
5.88497
5.88413
5.88374
5.88506
5.88791
5.89073
5.89213
5.89113
5.88772
5.88309
5.87785
5.87242
5.8667
5.86112
5.85679
5.85445
5.85336
5.85091
5.84236
5.8235
5.7945
5.75326
5.69053
5.59626
5.47075
5.33444
5.2225
5.16021
5.14307
1.40001
1.40001
1.40001
1.40001
1.40001
1.40001
1.40001
1.40001
1.40001
1.40001
1.40001
1.40001
1.40001
1.40001
1.40001
1.40001
1.40001
1.40001
1.40001
1.40001
1.40001
1.40001
1.40001
1.40001
1.40001
1.40001
1.40001
1.40001
1.40001
1.40001
1.40001
1.40001
1.40001
1.40001
1.40001
1.40001
1.40001
1.40001
1.40001
1.40001
1.40001
1.40001
1.40001
1.40001
1.40001
1.40001
1.40001
1.40001
1.40001
1.40001
1.40001
1.40001
1.40001
1.40001
1.40001
1.40001
1.40001
1.40001
1.40001
1.40001
1.40001
1.40001
1.40001
1.40001
1.40001
1.40001
1.40001
1.40001
1.40001
1.40001
1.40001
1.40001
1.40001
1.40001
1.40001
1.40001
1.40001
1.40001
1.40001
1.40001
1.40001
1.40001
1.40001
1.40001
1.40001
1.40001
1.40001
1.40001
1.40001
1.40001
1.40001
1.40001
1.40001
1.40001
1.40001
1.40001
1.40001
1.40001
1.40001
1.40001
1.40001
1.40001
1.40001
1.40001
1.40001
1.40001
1.40001
1.40001
1.73177
4.63504
5.51527
5.48906
5.45718
5.43653
5.4367
5.45938
5.49468
5.53385
5.56832
5.59954
5.62661
5.64301
5.64156
5.63207
5.62122
5.61189
5.61037
5.62483
5.64783
5.66996
5.69139
5.71072
5.7282
5.73873
5.7374
5.72932
5.71906
5.70935
5.70412
5.70475
5.71419
5.73297
5.75237
5.76785
5.77936
5.78893
5.79817
5.80691
5.81307
5.81562
5.81279
5.80337
5.79081
5.77889
5.77423
5.78114
5.79774
5.82023
5.84294
5.86145
5.87437
5.88161
5.88391
5.88334
5.8821
5.88182
5.88374
5.88748
5.8911
5.89287
5.89172
5.88775
5.88246
5.87672
5.87106
5.86538
5.86012
5.85628
5.85433
5.85331
5.85042
5.84096
5.82121
5.79168
5.75024
5.68739
5.59287
5.46714
5.33105
5.21961
5.15778
5.14051
1.40001
1.40001
1.40001
1.40001
1.40001
1.40001
1.40001
1.40001
1.40001
1.40001
1.40001
1.40001
1.40001
1.40001
1.40001
1.40001
1.40001
1.40001
1.40001
1.40001
1.40001
1.40001
1.40001
1.40001
1.40001
1.40001
1.40001
1.40001
1.40001
1.40001
1.40001
1.40001
1.40001
1.40001
1.40001
1.40001
1.40001
1.40001
1.40001
1.40001
1.40001
1.40001
1.40001
1.40001
1.40001
1.40001
1.40001
1.40001
1.40001
1.40001
1.40001
1.40001
1.40001
1.40001
1.40001
1.40001
1.40001
1.40001
1.40001
1.40001
1.40001
1.40001
1.40001
1.40001
1.40001
1.40001
1.40001
1.40001
1.40001
1.40001
1.40001
1.40001
1.40001
1.40001
1.40001
1.40001
1.40001
1.40001
1.40001
1.40001
1.40001
1.40001
1.40001
1.40001
1.40001
1.40001
1.40001
1.40001
1.40001
1.40001
1.40001
1.40001
1.40001
1.40001
1.40001
1.40001
1.40001
1.40001
1.40001
1.40001
1.40001
1.40001
1.40001
1.40001
1.40001
1.40001
1.40001
1.40001
1.70588
4.60295
5.5138
5.48553
5.45484
5.43719
5.43899
5.46291
5.49857
5.53666
5.56917
5.60014
5.62667
5.6424
5.64017
5.63098
5.62063
5.61159
5.61027
5.62482
5.64734
5.66874
5.68981
5.70938
5.72743
5.73814
5.73683
5.72894
5.71864
5.70847
5.70293
5.70352
5.71329
5.7324
5.7522
5.76784
5.77921
5.78849
5.79746
5.80604
5.8122
5.81478
5.81193
5.80252
5.79001
5.77827
5.77387
5.78099
5.79753
5.82008
5.84298
5.86179
5.87473
5.88146
5.88301
5.88168
5.87994
5.8797
5.88214
5.88667
5.89105
5.8932
5.89199
5.88767
5.88183
5.87562
5.86965
5.86391
5.85882
5.85535
5.85381
5.85291
5.84955
5.83918
5.81854
5.78834
5.74638
5.6829
5.58764
5.46149
5.32578
5.21525
5.1542
5.13697
1.40001
1.40001
1.40001
1.40001
1.40001
1.40001
1.40001
1.40001
1.40001
1.40001
1.40001
1.40001
1.40001
1.40001
1.40001
1.40001
1.40001
1.40001
1.40001
1.40001
1.40001
1.40001
1.40001
1.40001
1.40001
1.40001
1.40001
1.40001
1.40001
1.40001
1.40001
1.40001
1.40001
1.40001
1.40001
1.40001
1.40001
1.40001
1.40001
1.40001
1.40001
1.40001
1.40001
1.40001
1.40001
1.40001
1.40001
1.40001
1.40001
1.40001
1.40001
1.40001
1.40001
1.40001
1.40001
1.40001
1.40001
1.40001
1.40001
1.40001
1.40001
1.40001
1.40001
1.40001
1.40001
1.40001
1.40001
1.40001
1.40001
1.40001
1.40001
1.40001
1.40001
1.40001
1.40001
1.40001
1.40001
1.40001
1.40001
1.40001
1.40001
1.40001
1.40001
1.40001
1.40001
1.40001
1.40001
1.40001
1.40001
1.40001
1.40001
1.40001
1.40001
1.40001
1.40001
1.40001
1.40001
1.40001
1.40001
1.40001
1.40001
1.40001
1.40001
1.40001
1.40001
1.40001
1.40001
1.40001
1.6739
4.55995
5.51252
5.48104
5.45218
5.43812
5.44284
5.46821
5.50324
5.53903
5.56961
5.60069
5.62671
5.64184
5.63913
5.63022
5.62011
5.61101
5.60988
5.62435
5.64619
5.66707
5.68806
5.70816
5.72686
5.73767
5.73636
5.72848
5.71797
5.70719
5.70131
5.70189
5.71213
5.73172
5.75202
5.76786
5.77906
5.78797
5.79657
5.80496
5.81115
5.81383
5.811
5.8016
5.78918
5.77768
5.77363
5.78096
5.7974
5.8198
5.8428
5.86179
5.87473
5.88102
5.88198
5.88005
5.8779
5.87766
5.8805
5.88562
5.8905
5.89292
5.89182
5.88736
5.88118
5.87464
5.86836
5.86245
5.85732
5.85393
5.85262
5.85183
5.84816
5.83708
5.81577
5.78491
5.74205
5.67733
5.58079
5.454
5.31882
5.20954
5.14951
5.13257
1.40001
1.40001
1.40001
1.40001
1.40001
1.40001
1.40001
1.40001
1.40001
1.40001
1.40001
1.40001
1.40001
1.40001
1.40001
1.40001
1.40001
1.40001
1.40001
1.40001
1.40001
1.40001
1.40001
1.40001
1.40001
1.40001
1.40001
1.40001
1.40001
1.40001
1.40001
1.40001
1.40001
1.40001
1.40001
1.40001
1.40001
1.40001
1.40001
1.40001
1.40001
1.40001
1.40001
1.40001
1.40001
1.40001
1.40001
1.40001
1.40001
1.40001
1.40001
1.40001
1.40001
1.40001
1.40001
1.40001
1.40001
1.40001
1.40001
1.40001
1.40001
1.40001
1.40001
1.40001
1.40001
1.40001
1.40001
1.40001
1.40001
1.40001
1.40001
1.40001
1.40001
1.40001
1.40001
1.40001
1.40001
1.40001
1.40001
1.40001
1.40001
1.40001
1.40001
1.40001
1.40001
1.40001
1.40001
1.40001
1.40001
1.40001
1.40001
1.40001
1.40001
1.40001
1.40001
1.40001
1.40001
1.40001
1.40001
1.40001
1.40001
1.40001
1.40001
1.40001
1.40001
1.40001
1.40001
1.40001
1.63611
4.50421
5.51046
5.47631
5.45067
5.44058
5.44849
5.47516
5.50734
5.54004
5.56989
5.60158
5.62699
5.64146
5.63838
5.62953
5.6193
5.6099
5.60909
5.6234
5.64458
5.66514
5.68632
5.70721
5.72655
5.73729
5.73586
5.72779
5.71692
5.70545
5.69928
5.69989
5.71074
5.73088
5.75172
5.76774
5.77872
5.78725
5.79552
5.80381
5.81013
5.81295
5.81011
5.80064
5.78824
5.777
5.77337
5.78094
5.79731
5.81954
5.84245
5.86146
5.87424
5.88011
5.88061
5.8783
5.87591
5.87572
5.8789
5.88444
5.8896
5.89205
5.89105
5.88664
5.88041
5.87373
5.86724
5.86114
5.85578
5.85215
5.85073
5.84992
5.84614
5.83476
5.81318
5.78174
5.7376
5.67105
5.57269
5.44507
5.31052
5.20273
5.14391
5.12752
1.40001
1.40001
1.40001
1.40001
1.40001
1.40001
1.40001
1.40001
1.40001
1.40001
1.40001
1.40001
1.40001
1.40001
1.40001
1.40001
1.40001
1.40001
1.40001
1.40001
1.40001
1.40001
1.40001
1.40001
1.40001
1.40001
1.40001
1.40001
1.40001
1.40001
1.40001
1.40001
1.40001
1.40001
1.40001
1.40001
1.40001
1.40001
1.40001
1.40001
1.40001
1.40001
1.40001
1.40001
1.40001
1.40001
1.40001
1.40001
1.40001
1.40001
1.40001
1.40001
1.40001
1.40001
1.40001
1.40001
1.40001
1.40001
1.40001
1.40001
1.40001
1.40001
1.40001
1.40001
1.40001
1.40001
1.40001
1.40001
1.40001
1.40001
1.40001
1.40001
1.40001
1.40001
1.40001
1.40001
1.40001
1.40001
1.40001
1.40001
1.40001
1.40001
1.40001
1.40001
1.40001
1.40001
1.40001
1.40001
1.40001
1.40001
1.40001
1.40001
1.40001
1.40001
1.40001
1.40001
1.40001
1.40001
1.40001
1.40001
1.40001
1.40001
1.40001
1.40001
1.40001
1.40001
1.40001
1.40001
1.59292
4.43445
5.50423
5.47389
5.45188
5.44682
5.45658
5.48084
5.50888
5.54002
5.5708
5.60329
5.62777
5.64136
5.63818
5.62903
5.61807
5.60818
5.60778
5.62181
5.64231
5.66282
5.6846
5.70659
5.72651
5.73699
5.73536
5.72695
5.71564
5.70346
5.69709
5.69781
5.70929
5.72994
5.75116
5.76716
5.7778
5.78596
5.79407
5.80251
5.80918
5.81222
5.80932
5.79964
5.78715
5.77611
5.77292
5.78082
5.79725
5.81936
5.84206
5.86082
5.87325
5.87866
5.87877
5.87625
5.87383
5.87381
5.87733
5.88324
5.88858
5.89094
5.88979
5.88544
5.87933
5.87273
5.86623
5.86
5.85431
5.85016
5.84827
5.8472
5.84345
5.83229
5.81086
5.77898
5.73332
5.66447
5.56388
5.43523
5.30133
5.19516
5.13767
5.12203
1.40001
1.40001
1.40001
1.40001
1.40001
1.40001
1.40001
1.40001
1.40001
1.40001
1.40001
1.40001
1.40001
1.40001
1.40001
1.40001
1.40001
1.40001
1.40001
1.40001
1.40001
1.40001
1.40001
1.40001
1.40001
1.40001
1.40001
1.40001
1.40001
1.40001
1.40001
1.40001
1.40001
1.40001
1.40001
1.40001
1.40001
1.40001
1.40001
1.40001
1.40001
1.40001
1.40001
1.40001
1.40001
1.40001
1.40001
1.40001
1.40001
1.40001
1.40001
1.40001
1.40001
1.40001
1.40001
1.40001
1.40001
1.40001
1.40001
1.40001
1.40001
1.40001
1.40001
1.40001
1.40001
1.40001
1.40001
1.40001
1.40001
1.40001
1.40001
1.40001
1.40001
1.40001
1.40001
1.40001
1.40001
1.40001
1.40001
1.40001
1.40001
1.40001
1.40001
1.40001
1.40001
1.40001
1.40001
1.40001
1.40001
1.40001
1.40001
1.40001
1.40001
1.40001
1.40001
1.40001
1.40001
1.40001
1.40001
1.40001
1.40001
1.40001
1.40001
1.40001
1.40001
1.40001
1.40001
1.40001
1.54448
4.34338
5.49875
5.47788
5.45831
5.45507
5.46278
5.4823
5.50847
5.54043
5.57303
5.60597
5.62908
5.64143
5.6384
5.62846
5.61603
5.60559
5.60567
5.61947
5.63945
5.66035
5.68323
5.70654
5.72694
5.73683
5.7348
5.72588
5.71411
5.70116
5.6947
5.6958
5.70783
5.72899
5.75036
5.76607
5.77618
5.78396
5.79214
5.80103
5.80828
5.81164
5.80862
5.79861
5.78588
5.77501
5.77231
5.78058
5.79722
5.81929
5.84167
5.85994
5.87181
5.87672
5.87647
5.87384
5.87152
5.87177
5.87567
5.88199
5.88755
5.8898
5.88838
5.88389
5.87785
5.87144
5.86513
5.85891
5.85295
5.84814
5.84548
5.84388
5.84015
5.82956
5.80873
5.77662
5.72938
5.658
5.55496
5.42513
5.29178
5.1872
5.13101
5.11621
1.40001
1.40001
1.40001
1.40001
1.40001
1.40001
1.40001
1.40001
1.40001
1.40001
1.40001
1.40001
1.40001
1.40001
1.40001
1.40001
1.40001
1.40001
1.40001
1.40001
1.40001
1.40001
1.40001
1.40001
1.40001
1.40001
1.40001
1.40001
1.40001
1.40001
1.40001
1.40001
1.40001
1.40001
1.40001
1.40001
1.40001
1.40001
1.40001
1.40001
1.40001
1.40001
1.40001
1.40001
1.40001
1.40001
1.40001
1.40001
1.40001
1.40001
1.40001
1.40001
1.40001
1.40001
1.40001
1.40001
1.40001
1.40001
1.40001
1.40001
1.40001
1.40001
1.40001
1.40001
1.40001
1.40001
1.40001
1.40001
1.40001
1.40001
1.40001
1.40001
1.40001
1.40001
1.40001
1.40001
1.40001
1.40001
1.40001
1.40001
1.40001
1.40001
1.40001
1.40001
1.40001
1.40001
1.40001
1.40001
1.40001
1.40001
1.40001
1.40001
1.40001
1.40001
1.40001
1.40001
1.40001
1.40001
1.40001
1.40001
1.40001
1.40001
1.40001
1.40001
1.40001
1.40001
1.40001
1.40001
1.48791
4.24134
5.50707
5.48979
5.46738
5.45895
5.46285
5.48104
5.50819
5.54175
5.57643
5.60931
5.63072
5.64134
5.63864
5.62746
5.6131
5.60214
5.6027
5.61649
5.63627
5.65805
5.68234
5.70694
5.72762
5.73667
5.73379
5.72449
5.71238
5.69879
5.69241
5.69417
5.70676
5.72824
5.74945
5.76454
5.77386
5.78122
5.7896
5.79915
5.80718
5.81093
5.80779
5.79742
5.78436
5.77376
5.77166
5.78037
5.79729
5.81929
5.8412
5.85878
5.86998
5.87441
5.8739
5.87119
5.86899
5.8695
5.87377
5.88055
5.88641
5.88871
5.88707
5.88229
5.87606
5.86973
5.86371
5.8577
5.85164
5.8462
5.84262
5.84028
5.83645
5.8265
5.80654
5.77439
5.7258
5.65203
5.54659
5.41548
5.28246
5.1792
5.1241
5.11004
1.40001
1.40001
1.40001
1.40001
1.40001
1.40001
1.40001
1.40001
1.40001
1.40001
1.40001
1.40001
1.40001
1.40001
1.40001
1.40001
1.40001
1.40001
1.40001
1.40001
1.40001
1.40001
1.40001
1.40001
1.40001
1.40001
1.40001
1.40001
1.40001
1.40001
1.40001
1.40001
1.40001
1.40001
1.40001
1.40001
1.40001
1.40001
1.40001
1.40001
1.40001
1.40001
1.40001
1.40001
1.40001
1.40001
1.40001
1.40001
1.40001
1.40001
1.40001
1.40001
1.40001
1.40001
1.40001
1.40001
1.40001
1.40001
1.40001
1.40001
1.40001
1.40001
1.40001
1.40001
1.40001
1.40001
1.40001
1.40001
1.40001
1.40001
1.40001
1.40001
1.40001
1.40001
1.40001
1.40001
1.40001
1.40001
1.40001
1.40001
1.40001
1.40001
1.40001
1.40001
1.40001
1.40001
1.40001
1.40001
1.40001
1.40001
1.40001
1.40001
1.40001
1.40001
1.40001
1.40001
1.40001
1.40001
1.40001
1.40001
1.40001
1.40001
1.40001
1.40001
1.40001
1.40001
1.40001
1.40001
1.42592
4.16002
5.52296
5.49536
5.467
5.45643
5.46047
5.47903
5.50812
5.54384
5.58056
5.61274
5.6322
5.64056
5.63843
5.62575
5.60913
5.59782
5.59892
5.61304
5.63312
5.65617
5.68196
5.70768
5.72818
5.73639
5.73245
5.72276
5.71035
5.69657
5.69059
5.69309
5.70616
5.72766
5.74845
5.76268
5.77111
5.77802
5.78665
5.79691
5.80569
5.80982
5.80656
5.79589
5.78254
5.77244
5.77117
5.78037
5.79756
5.81932
5.84054
5.85722
5.86771
5.8718
5.87121
5.86852
5.86641
5.86703
5.87147
5.87865
5.88496
5.88756
5.88592
5.88083
5.87416
5.86767
5.86186
5.85617
5.85019
5.84433
5.83993
5.83682
5.83271
5.82319
5.80395
5.77201
5.72246
5.64682
5.53934
5.40698
5.27392
5.17147
5.11706
5.10345
1.40001
1.40001
1.40001
1.40001
1.40001
1.40001
1.40001
1.40001
1.40001
1.40001
1.40001
1.40001
1.40001
1.40001
1.40001
1.40001
1.40001
1.40001
1.40001
1.40001
1.40001
1.40001
1.40001
1.40001
1.40001
1.40001
1.40001
1.40001
1.40001
1.40001
1.40001
1.40001
1.40001
1.40001
1.40001
1.40001
1.40001
1.40001
1.40001
1.40001
1.40001
1.40001
1.40001
1.40001
1.40001
1.40001
1.40001
1.40001
1.40001
1.40001
1.40001
1.40001
1.40001
1.40001
1.40001
1.40001
1.40001
1.40001
1.40001
1.40001
1.40001
1.40001
1.40001
1.40001
1.40001
1.40001
1.40001
1.40001
1.40001
1.40001
1.40001
1.40001
1.40001
1.40001
1.40001
1.40001
1.40001
1.40001
1.40001
1.40001
1.40001
1.40001
1.40001
1.40001
1.40001
1.40001
1.40001
1.40001
1.40001
1.40001
1.40001
1.40001
1.40001
1.40001
1.40001
1.40001
1.40001
1.40001
1.40001
1.40001
1.40001
1.40001
1.40001
1.40001
1.40001
1.40001
1.40001
1.40001
1.40044
4.07036
5.52336
5.49047
5.46155
5.45175
5.45679
5.47713
5.5087
5.54644
5.58431
5.61511
5.63302
5.63926
5.63684
5.62283
5.604
5.59268
5.59452
5.60942
5.63037
5.65504
5.68204
5.70843
5.72833
5.73564
5.73075
5.72058
5.70775
5.69448
5.68926
5.69248
5.7059
5.72712
5.74731
5.76063
5.76822
5.77478
5.78366
5.7945
5.8038
5.80807
5.80462
5.79379
5.78036
5.77108
5.77091
5.78078
5.79815
5.81939
5.83963
5.85521
5.86497
5.86888
5.86849
5.86604
5.86404
5.86454
5.86879
5.87609
5.88292
5.88609
5.88478
5.87959
5.87238
5.86549
5.85967
5.85419
5.84838
5.84237
5.83748
5.83376
5.82924
5.81975
5.80083
5.76919
5.71926
5.64254
5.53362
5.40013
5.26661
5.16429
5.10999
5.09643
1.40001
1.40001
1.40001
1.40001
1.40001
1.40001
1.40001
1.40001
1.40001
1.40001
1.40001
1.40001
1.40001
1.40001
1.40001
1.40001
1.40001
1.40001
1.40001
1.40001
1.40001
1.40001
1.40001
1.40001
1.40001
1.40001
1.40001
1.40001
1.40001
1.40001
1.40001
1.40001
1.40001
1.40001
1.40001
1.40001
1.40001
1.40001
1.40001
1.40001
1.40001
1.40001
1.40001
1.40001
1.40001
1.40001
1.40001
1.40001
1.40001
1.40001
1.40001
1.40001
1.40001
1.40001
1.40001
1.40001
1.40001
1.40001
1.40001
1.40001
1.40001
1.40001
1.40001
1.40001
1.40001
1.40001
1.40001
1.40001
1.40001
1.40001
1.40001
1.40001
1.40001
1.40001
1.40001
1.40001
1.40001
1.40001
1.40001
1.40001
1.40001
1.40001
1.40001
1.40001
1.40001
1.40001
1.40001
1.40001
1.40001
1.40001
1.40001
1.40001
1.40001
1.40001
1.40001
1.40001
1.40001
1.40001
1.40001
1.40001
1.40001
1.40001
1.40001
1.40001
1.40001
1.40001
1.40001
1.40001
1.40001
3.95224
5.51153
5.48201
5.4554
5.44601
5.45261
5.47612
5.51004
5.54911
5.587
5.61606
5.63309
5.63813
5.63375
5.6179
5.59782
5.5869
5.58986
5.60598
5.62845
5.65483
5.68249
5.70885
5.72781
5.73414
5.72848
5.71782
5.70466
5.69244
5.68826
5.69218
5.70579
5.72641
5.74587
5.7583
5.76527
5.77175
5.78101
5.79229
5.80172
5.80576
5.80188
5.79093
5.7778
5.76967
5.77083
5.78166
5.79907
5.81955
5.83848
5.85272
5.86168
5.86561
5.86572
5.86378
5.86202
5.86223
5.86587
5.87285
5.88006
5.88396
5.88332
5.87842
5.8709
5.86349
5.85733
5.85178
5.84602
5.8401
5.83511
5.83112
5.82618
5.8164
5.79737
5.76588
5.7162
5.6392
5.52953
5.39511
5.26075
5.15789
5.10306
5.08908
1.40001
1.40001
1.40001
1.40001
1.40001
1.40001
1.40001
1.40001
1.40001
1.40001
1.40001
1.40001
1.40001
1.40001
1.40001
1.40001
1.40001
1.40001
1.40001
1.40001
1.40001
1.40001
1.40001
1.40001
1.40001
1.40001
1.40001
1.40001
1.40001
1.40001
1.40001
1.40001
1.40001
1.40001
1.40001
1.40001
1.40001
1.40001
1.40001
1.40001
1.40001
1.40001
1.40001
1.40001
1.40001
1.40001
1.40001
1.40001
1.40001
1.40001
1.40001
1.40001
1.40001
1.40001
1.40001
1.40001
1.40001
1.40001
1.40001
1.40001
1.40001
1.40001
1.40001
1.40001
1.40001
1.40001
1.40001
1.40001
1.40001
1.40001
1.40001
1.40001
1.40001
1.40001
1.40001
1.40001
1.40001
1.40001
1.40001
1.40001
1.40001
1.40001
1.40001
1.40001
1.40001
1.40001
1.40001
1.40001
1.40001
1.40001
1.40001
1.40001
1.40001
1.40001
1.40001
1.40001
1.40001
1.40001
1.40001
1.40001
1.40001
1.40001
1.40001
1.40001
1.40001
1.40001
1.40001
1.40001
1.40001
3.82376
5.49379
5.47407
5.44898
5.44029
5.4498
5.47673
5.51165
5.55091
5.58831
5.6157
5.63219
5.63719
5.62991
5.61099
5.59099
5.58117
5.58563
5.60298
5.62752
5.65541
5.6832
5.70887
5.72644
5.7318
5.72547
5.71437
5.70117
5.69024
5.68729
5.69192
5.70551
5.72522
5.74383
5.75547
5.76216
5.76895
5.77884
5.79052
5.79978
5.8032
5.7986
5.78745
5.77482
5.76815
5.77082
5.78269
5.80012
5.81972
5.83716
5.84987
5.8579
5.86194
5.86278
5.86163
5.8603
5.8602
5.86297
5.8692
5.8764
5.88101
5.88127
5.87707
5.86968
5.86186
5.85509
5.84909
5.84311
5.83731
5.83254
5.82862
5.82339
5.81316
5.7938
5.76239
5.71328
5.63667
5.52681
5.39167
5.25625
5.15234
5.09649
5.08174
1.40001
1.40001
1.40001
1.40001
1.40001
1.40001
1.40001
1.40001
1.40001
1.40001
1.40001
1.40001
1.40001
1.40001
1.40001
1.40001
1.40001
1.40001
1.40001
1.40001
1.40001
1.40001
1.40001
1.40001
1.40001
1.40001
1.40001
1.40001
1.40001
1.40001
1.40001
1.40001
1.40001
1.40001
1.40001
1.40001
1.40001
1.40001
1.40001
1.40001
1.40001
1.40001
1.40001
1.40001
1.40001
1.40001
1.40001
1.40001
1.40001
1.40001
1.40001
1.40001
1.40001
1.40001
1.40001
1.40001
1.40001
1.40001
1.40001
1.40001
1.40001
1.40001
1.40001
1.40001
1.40001
1.40001
1.40001
1.40001
1.40001
1.40001
1.40001
1.40001
1.40001
1.40001
1.40001
1.40001
1.40001
1.40001
1.40001
1.40001
1.40001
1.40001
1.40001
1.40001
1.40001
1.40001
1.40001
1.40001
1.40001
1.40001
1.40001
1.40001
1.40001
1.40001
1.40001
1.40001
1.40001
1.40001
1.40001
1.40001
1.40001
1.40001
1.40001
1.40001
1.40001
1.40001
1.40001
1.40001
1.40001
3.68877
5.47309
5.46428
5.44245
5.43771
5.44968
5.47829
5.51254
5.55141
5.58862
5.61499
5.63105
5.63577
5.62508
5.60295
5.58395
5.57633
5.58238
5.60075
5.62738
5.65654
5.68419
5.70868
5.72449
5.72876
5.72174
5.71022
5.69735
5.68788
5.68627
5.69146
5.70477
5.7233
5.74097
5.7519
5.75867
5.76621
5.77699
5.78913
5.79807
5.80068
5.79521
5.78376
5.77176
5.7666
5.77073
5.78354
5.80092
5.81971
5.83567
5.8468
5.85384
5.85794
5.8596
5.85942
5.8586
5.85829
5.86022
5.86543
5.8722
5.87727
5.87842
5.87524
5.86852
5.86055
5.85315
5.84639
5.83985
5.83396
5.82944
5.82584
5.82053
5.80997
5.79038
5.75917
5.71073
5.63484
5.52503
5.38927
5.25273
5.14755
5.09045
5.07473
1.40001
1.40001
1.40001
1.40001
1.40001
1.40001
1.40001
1.40001
1.40001
1.40001
1.40001
1.40001
1.40001
1.40001
1.40001
1.40001
1.40001
1.40001
1.40001
1.40001
1.40001
1.40001
1.40001
1.40001
1.40001
1.40001
1.40001
1.40001
1.40001
1.40001
1.40001
1.40001
1.40001
1.40001
1.40001
1.40001
1.40001
1.40001
1.40001
1.40001
1.40001
1.40001
1.40001
1.40001
1.40001
1.40001
1.40001
1.40001
1.40001
1.40001
1.40001
1.40001
1.40001
1.40001
1.40001
1.40001
1.40001
1.40001
1.40001
1.40001
1.40001
1.40001
1.40001
1.40001
1.40001
1.40001
1.40001
1.40001
1.40001
1.40001
1.40001
1.40001
1.40001
1.40001
1.40001
1.40001
1.40001
1.40001
1.40001
1.40001
1.40001
1.40001
1.40001
1.40001
1.40001
1.40001
1.40001
1.40001
1.40001
1.40001
1.40001
1.40001
1.40001
1.40001
1.40001
1.40001
1.40001
1.40001
1.40001
1.40001
1.40001
1.40001
1.40001
1.40001
1.40001
1.40001
1.40001
1.40001
1.40001
3.54609
5.44538
5.45233
5.4387
5.43937
5.45186
5.47941
5.51284
5.5516
5.58862
5.61434
5.63024
5.63294
5.61836
5.59448
5.57757
5.57279
5.57985
5.59971
5.6281
5.65802
5.68556
5.70855
5.72225
5.72513
5.71728
5.70547
5.69342
5.68552
5.68513
5.69067
5.70337
5.72053
5.73719
5.7476
5.75475
5.76332
5.77516
5.78779
5.79646
5.7983
5.79209
5.78037
5.76919
5.76541
5.77061
5.78395
5.80116
5.81921
5.83387
5.84358
5.8497
5.85377
5.85623
5.85693
5.85662
5.85629
5.85751
5.86178
5.8679
5.87304
5.87488
5.87283
5.8671
5.85935
5.85151
5.84389
5.83652
5.83017
5.82564
5.82233
5.81718
5.80671
5.78734
5.75663
5.7089
5.63354
5.52376
5.38747
5.24977
5.14322
5.08471
5.06798
1.40001
1.40001
1.40001
1.40001
1.40001
1.40001
1.40001
1.40001
1.40001
1.40001
1.40001
1.40001
1.40001
1.40001
1.40001
1.40001
1.40001
1.40001
1.40001
1.40001
1.40001
1.40001
1.40001
1.40001
1.40001
1.40001
1.40001
1.40001
1.40001
1.40001
1.40001
1.40001
1.40001
1.40001
1.40001
1.40001
1.40001
1.40001
1.40001
1.40001
1.40001
1.40001
1.40001
1.40001
1.40001
1.40001
1.40001
1.40001
1.40001
1.40001
1.40001
1.40001
1.40001
1.40001
1.40001
1.40001
1.40001
1.40001
1.40001
1.40001
1.40001
1.40001
1.40001
1.40001
1.40001
1.40001
1.40001
1.40001
1.40001
1.40001
1.40001
1.40001
1.40001
1.40001
1.40001
1.40001
1.40001
1.40001
1.40001
1.40001
1.40001
1.40001
1.40001
1.40001
1.40001
1.40001
1.40001
1.40001
1.40001
1.40001
1.40001
1.40001
1.40001
1.40001
1.40001
1.40001
1.40001
1.40001
1.40001
1.40001
1.40001
1.40001
1.40001
1.40001
1.40001
1.40001
1.40001
1.40001
1.40001
3.39294
5.4092
5.44398
5.4378
5.44205
5.45414
5.47979
5.51358
5.55276
5.58912
5.61406
5.62908
5.62816
5.60934
5.58626
5.5725
5.56998
5.57823
5.59996
5.62953
5.65975
5.68725
5.70855
5.7197
5.72082
5.71216
5.7006
5.68992
5.68349
5.68392
5.68949
5.70122
5.71688
5.7326
5.7428
5.75056
5.76023
5.77298
5.78602
5.79453
5.79585
5.7893
5.77754
5.76767
5.76496
5.77059
5.7838
5.80052
5.81784
5.8315
5.84012
5.84559
5.8497
5.85274
5.85412
5.8542
5.85385
5.85459
5.8582
5.86376
5.86875
5.87104
5.86988
5.86513
5.85798
5.84997
5.84161
5.83334
5.82617
5.82116
5.81785
5.81303
5.8032
5.78476
5.75502
5.70802
5.6328
5.52259
5.3855
5.2466
5.13885
5.07913
5.06164
1.40001
1.40001
1.40001
1.40001
1.40001
1.40001
1.40001
1.40001
1.40001
1.40001
1.40001
1.40001
1.40001
1.40001
1.40001
1.40001
1.40001
1.40001
1.40001
1.40001
1.40001
1.40001
1.40001
1.40001
1.40001
1.40001
1.40001
1.40001
1.40001
1.40001
1.40001
1.40001
1.40001
1.40001
1.40001
1.40001
1.40001
1.40001
1.40001
1.40001
1.40001
1.40001
1.40001
1.40001
1.40001
1.40001
1.40001
1.40001
1.40001
1.40001
1.40001
1.40001
1.40001
1.40001
1.40001
1.40001
1.40001
1.40001
1.40001
1.40001
1.40001
1.40001
1.40001
1.40001
1.40001
1.40001
1.40001
1.40001
1.40001
1.40001
1.40001
1.40001
1.40001
1.40001
1.40001
1.40001
1.40001
1.40001
1.40001
1.40001
1.40001
1.40001
1.40001
1.40001
1.40001
1.40001
1.40001
1.40001
1.40001
1.40001
1.40001
1.40001
1.40001
1.40001
1.40001
1.40001
1.40001
1.40001
1.40001
1.40001
1.40001
1.40001
1.40001
1.40001
1.40001
1.40001
1.40001
1.40001
1.40001
3.23097
5.36801
5.43956
5.43654
5.44346
5.45502
5.48049
5.5159
5.55584
5.59036
5.61429
5.62648
5.62129
5.59858
5.57857
5.56848
5.56736
5.57776
5.60134
5.6313
5.66155
5.68878
5.70827
5.71691
5.71538
5.7064
5.69606
5.68719
5.68202
5.68272
5.68782
5.69822
5.71239
5.72746
5.73791
5.74654
5.75717
5.77041
5.7835
5.79184
5.79291
5.78661
5.77541
5.76741
5.76551
5.77091
5.78321
5.79891
5.81542
5.82831
5.83626
5.84152
5.84585
5.84933
5.85105
5.85123
5.85078
5.8512
5.85447
5.85988
5.86485
5.86729
5.86656
5.86261
5.85615
5.8482
5.83937
5.83033
5.82213
5.81619
5.81245
5.80794
5.79925
5.78251
5.7543
5.70808
5.63275
5.5216
5.38316
5.24298
5.13429
5.07391
5.05607
1.40001
1.40001
1.40001
1.40001
1.40001
1.40001
1.40001
1.40001
1.40001
1.40001
1.40001
1.40001
1.40001
1.40001
1.40001
1.40001
1.40001
1.40001
1.40001
1.40001
1.40001
1.40001
1.40001
1.40001
1.40001
1.40001
1.40001
1.40001
1.40001
1.40001
1.40001
1.40001
1.40001
1.40001
1.40001
1.40001
1.40001
1.40001
1.40001
1.40001
1.40001
1.40001
1.40001
1.40001
1.40001
1.40001
1.40001
1.40001
1.40001
1.40001
1.40001
1.40001
1.40001
1.40001
1.40001
1.40001
1.40001
1.40001
1.40001
1.40001
1.40001
1.40001
1.40001
1.40001
1.40001
1.40001
1.40001
1.40001
1.40001
1.40001
1.40001
1.40001
1.40001
1.40001
1.40001
1.40001
1.40001
1.40001
1.40001
1.40001
1.40001
1.40001
1.40001
1.40001
1.40001
1.40001
1.40001
1.40001
1.40001
1.40001
1.40001
1.40001
1.40001
1.40001
1.40001
1.40001
1.40001
1.40001
1.40001
1.40001
1.40001
1.40001
1.40001
1.40001
1.40001
1.40001
1.40001
1.40001
1.40001
3.06245
5.32419
5.43657
5.43366
5.44315
5.4555
5.48359
5.52028
5.55939
5.59198
5.61425
5.62161
5.61155
5.58825
5.5723
5.56523
5.56565
5.57841
5.60354
5.63332
5.66311
5.6896
5.70673
5.7129
5.7088
5.70018
5.69234
5.68543
5.68121
5.68157
5.68568
5.69436
5.70712
5.72195
5.73326
5.74311
5.75458
5.76776
5.78028
5.78817
5.78908
5.78362
5.77408
5.76826
5.76709
5.77175
5.78244
5.79658
5.81197
5.82413
5.8318
5.83732
5.84217
5.84605
5.84783
5.8478
5.84707
5.84725
5.85053
5.85618
5.86139
5.86388
5.86324
5.85964
5.85359
5.84585
5.8369
5.82734
5.81813
5.81099
5.80643
5.80205
5.79477
5.78033
5.75415
5.70888
5.63337
5.52111
5.38109
5.23944
5.12986
5.06904
5.05117
1.40001
1.40001
1.40001
1.40001
1.40001
1.40001
1.40001
1.40001
1.40001
1.40001
1.40001
1.40001
1.40001
1.40001
1.40001
1.40001
1.40001
1.40001
1.40001
1.40001
1.40001
1.40001
1.40001
1.40001
1.40001
1.40001
1.40001
1.40001
1.40001
1.40001
1.40001
1.40001
1.40001
1.40001
1.40001
1.40001
1.40001
1.40001