/*--------------------------------*- C++ -*----------------------------------*\
  =========                 |
  \\      /  F ield         | OpenFOAM: The Open Source CFD Toolbox
   \\    /   O peration     | Website:  https://openfoam.org
    \\  /    A nd           | Version:  7
     \\/     M anipulation  |
\*---------------------------------------------------------------------------*/
FoamFile
{
    version     2.0;
    format      ascii;
    class       volScalarField;
    location    "1";
    object      T;
}
// * * * * * * * * * * * * * * * * * * * * * * * * * * * * * * * * * * * * * //

dimensions      [0 0 0 1 0 0 0];

internalField   nonuniform List<scalar> 
258048
(
1
1
1
1
1
1
1
1
1
1
1
1
1
1
1
1
1
1
1
1
1
1
1
1
1
1
1
1
1
1
1
1
1
1
1
1
1
1
1
1
1
1
1
1
1
1
1
1
1
1
1
1
1
1
1
1
1
1
1
1
1
1
1
1
1
1
1
1
1
1
1
1
1
1
1
1
1
1
1
1
1
1
1
1
1
1
1
1
1
1
1
1
1
1
1
1
1
1
1
1
1
1
1
1
1
1
1
1
1.34144
2.52938
2.71118
2.70815
2.71739
2.73424
2.75347
2.77221
2.78541
2.7911
2.79085
2.78667
2.77864
2.77091
2.76689
2.76659
2.77104
2.78096
2.79206
2.80169
2.80658
2.80689
2.80536
2.80265
2.80143
2.80296
2.80757
2.81227
2.81573
2.81671
2.81597
2.81441
2.81509
2.81742
2.82111
2.82567
2.83029
2.83428
2.83743
2.83973
2.84131
2.8426
2.843
2.842
2.84085
2.84007
2.84029
2.84248
2.84707
2.85285
2.85874
2.8638
2.86774
2.87068
2.87283
2.87445
2.87579
2.8771
2.87866
2.88048
2.88235
2.88413
2.88553
2.88634
2.88696
2.88754
2.88823
2.88915
2.89054
2.89281
2.89624
2.90086
2.90642
2.91273
2.92032
2.93165
2.95151
2.98696
3.04518
3.12703
3.22009
3.30029
3.34751
3.3626
1
1
1
1
1
1
1
1
1
1
1
1
1
1
1
1
1
1
1
1
1
1
1
1
1
1
1
1
1
1
1
1
1
1
1
1
1
1
1
1
1
1
1
1
1
1
1
1
1
1
1
1
1
1
1
1
1
1
1
1
1
1
1
1
1
1
1
1
1
1
1
1
1
1
1
1
1
1
1
1
1
1
1
1
1
1
1
1
1
1
1
1
1
1
1
1
1
1
1
1
1
1
1
1
1
1
1
1
1.33687
2.52665
2.70977
2.70816
2.71771
2.73471
2.75399
2.77281
2.78583
2.79131
2.79086
2.78661
2.77864
2.77089
2.76676
2.76646
2.77094
2.78103
2.79219
2.80178
2.80659
2.80682
2.80525
2.80255
2.80139
2.80296
2.80759
2.81237
2.81578
2.81671
2.81592
2.81433
2.81503
2.81738
2.82109
2.82566
2.83028
2.83427
2.83742
2.83972
2.8413
2.84256
2.84293
2.84193
2.84079
2.84002
2.84029
2.84255
2.84715
2.85294
2.85885
2.86391
2.86783
2.87071
2.87277
2.8743
2.87559
2.87694
2.87859
2.88051
2.88245
2.88428
2.88564
2.88635
2.88688
2.88741
2.88808
2.88903
2.8905
2.89284
2.89632
2.90093
2.90645
2.91269
2.92023
2.93157
2.95152
2.98714
3.04552
3.12744
3.22043
3.30047
3.34754
3.36253
1
1
1
1
1
1
1
1
1
1
1
1
1
1
1
1
1
1
1
1
1
1
1
1
1
1
1
1
1
1
1
1
1
1
1
1
1
1
1
1
1
1
1
1
1
1
1
1
1
1
1
1
1
1
1
1
1
1
1
1
1
1
1
1
1
1
1
1
1
1
1
1
1
1
1
1
1
1
1
1
1
1
1
1
1
1
1
1
1
1
1
1
1
1
1
1
1
1
1
1
1
1
1
1
1
1
1
1
1.32606
2.52045
2.70792
2.7082
2.7185
2.73551
2.75468
2.77376
2.78642
2.79151
2.79081
2.78638
2.77838
2.77066
2.7664
2.76617
2.77084
2.7812
2.7924
2.8019
2.80659
2.80673
2.80507
2.80236
2.8013
2.80298
2.80768
2.81253
2.81587
2.8167
2.81583
2.81417
2.81489
2.81729
2.82106
2.82566
2.83026
2.83423
2.83737
2.83967
2.84125
2.84248
2.84281
2.84179
2.84063
2.83984
2.84013
2.84247
2.84709
2.85292
2.85889
2.86401
2.86793
2.87072
2.87264
2.87405
2.87526
2.87664
2.87842
2.88049
2.88256
2.88449
2.88581
2.88639
2.88681
2.88724
2.88786
2.88884
2.89041
2.89287
2.89645
2.90109
2.90655
2.91272
2.92023
2.93166
2.95184
2.98782
3.04652
3.12856
3.22139
3.30109
3.34791
3.36274
1
1
1
1
1
1
1
1
1
1
1
1
1
1
1
1
1
1
1
1
1
1
1
1
1
1
1
1
1
1
1
1
1
1
1
1
1
1
1
1
1
1
1
1
1
1
1
1
1
1
1
1
1
1
1
1
1
1
1
1
1
1
1
1
1
1
1
1
1
1
1
1
1
1
1
1
1
1
1
1
1
1
1
1
1
1
1
1
1
1
1
1
1
1
1
1
1
1
1
1
1
1
1
1
1
1
1
1
1.31001
2.51025
2.70534
2.70807
2.71953
2.73688
2.756
2.77506
2.7871
2.79162
2.79061
2.78587
2.77774
2.77011
2.76585
2.76582
2.77084
2.7815
2.7927
2.80202
2.80652
2.80655
2.80477
2.80211
2.80122
2.80307
2.8079
2.81277
2.81599
2.81667
2.81568
2.81393
2.81471
2.8172
2.82107
2.82572
2.83031
2.83423
2.8373
2.83958
2.84115
2.84236
2.84266
2.84165
2.84049
2.83969
2.84
2.84243
2.84707
2.85294
2.85897
2.86414
2.86805
2.87075
2.87253
2.87378
2.8749
2.87629
2.87821
2.88045
2.88269
2.8847
2.88599
2.88642
2.88673
2.88705
2.88759
2.88859
2.89026
2.89286
2.89657
2.90126
2.90668
2.91276
2.92028
2.93191
2.95255
2.98915
3.04844
3.13072
3.2233
3.30242
3.34873
3.36327
1
1
1
1
1
1
1
1
1
1
1
1
1
1
1
1
1
1
1
1
1
1
1
1
1
1
1
1
1
1
1
1
1
1
1
1
1
1
1
1
1
1
1
1
1
1
1
1
1
1
1
1
1
1
1
1
1
1
1
1
1
1
1
1
1
1
1
1
1
1
1
1
1
1
1
1
1
1
1
1
1
1
1
1
1
1
1
1
1
1
1
1
1
1
1
1
1
1
1
1
1
1
1
1
1
1
1
1
1.28843
2.49576
2.70272
2.70821
2.7211
2.73914
2.75826
2.77656
2.78765
2.79145
2.79
2.7849
2.77668
2.76932
2.76528
2.76551
2.77097
2.78192
2.79305
2.8021
2.80633
2.80624
2.80437
2.80181
2.80115
2.80323
2.80823
2.81305
2.81612
2.81662
2.81544
2.81358
2.81444
2.81707
2.8211
2.82583
2.8304
2.83423
2.83722
2.83945
2.84101
2.84221
2.8425
2.84151
2.84035
2.83954
2.83986
2.84239
2.84704
2.85292
2.859
2.86422
2.86814
2.87076
2.87241
2.87351
2.87452
2.87591
2.87796
2.88036
2.88273
2.88485
2.88611
2.88643
2.88664
2.88688
2.88734
2.88832
2.89008
2.89281
2.89662
2.90137
2.90678
2.91282
2.92042
2.93238
2.95366
2.99111
3.0512
3.13385
3.22613
3.30449
3.35013
3.36434
1
1
1
1
1
1
1
1
1
1
1
1
1
1
1
1
1
1
1
1
1
1
1
1
1
1
1
1
1
1
1
1
1
1
1
1
1
1
1
1
1
1
1
1
1
1
1
1
1
1
1
1
1
1
1
1
1
1
1
1
1
1
1
1
1
1
1
1
1
1
1
1
1
1
1
1
1
1
1
1
1
1
1
1
1
1
1
1
1
1
1
1
1
1
1
1
1
1
1
1
1
1
1
1
1
1
1
1
1.26132
2.47671
2.6998
2.70915
2.72398
2.74278
2.76163
2.77837
2.78801
2.79072
2.78881
2.78347
2.77529
2.76839
2.76476
2.76528
2.77126
2.78245
2.79344
2.80211
2.806
2.80577
2.80383
2.80146
2.80108
2.80347
2.80864
2.81336
2.81622
2.81651
2.8151
2.8131
2.81408
2.81688
2.8211
2.82594
2.83048
2.83422
2.83712
2.83928
2.84084
2.84204
2.84233
2.84135
2.84021
2.83939
2.83974
2.84235
2.84701
2.85288
2.85898
2.86423
2.86814
2.87072
2.87227
2.87323
2.87416
2.87555
2.87771
2.88024
2.88268
2.88486
2.88613
2.88638
2.88655
2.88675
2.88716
2.88809
2.88986
2.89267
2.89656
2.90138
2.90681
2.91289
2.92067
2.93305
2.95508
2.99355
3.0546
3.13772
3.22971
3.30723
3.35212
3.36602
1
1
1
1
1
1
1
1
1
1
1
1
1
1
1
1
1
1
1
1
1
1
1
1
1
1
1
1
1
1
1
1
1
1
1
1
1
1
1
1
1
1
1
1
1
1
1
1
1
1
1
1
1
1
1
1
1
1
1
1
1
1
1
1
1
1
1
1
1
1
1
1
1
1
1
1
1
1
1
1
1
1
1
1
1
1
1
1
1
1
1
1
1
1
1
1
1
1
1
1
1
1
1
1
1
1
1
1
1.22852
2.45259
2.69668
2.71143
2.7286
2.74787
2.76563
2.7801
2.78779
2.78919
2.78697
2.78157
2.77362
2.76733
2.76426
2.76513
2.77169
2.78311
2.79388
2.80207
2.80552
2.80513
2.80314
2.80104
2.80096
2.80375
2.80911
2.81364
2.81626
2.81632
2.81462
2.81248
2.81361
2.81661
2.82103
2.82598
2.83052
2.83418
2.83698
2.8391
2.84067
2.84189
2.84216
2.84119
2.84005
2.83921
2.83959
2.8423
2.84696
2.85282
2.85891
2.86416
2.86804
2.87057
2.87205
2.87294
2.87382
2.87521
2.87747
2.88009
2.88258
2.88474
2.88601
2.88627
2.88643
2.88663
2.88702
2.88792
2.88965
2.89244
2.89636
2.90123
2.90672
2.91292
2.92097
2.93385
2.9567
2.99625
3.05837
3.14205
3.2338
3.3105
3.35462
3.36826
1
1
1
1
1
1
1
1
1
1
1
1
1
1
1
1
1
1
1
1
1
1
1
1
1
1
1
1
1
1
1
1
1
1
1
1
1
1
1
1
1
1
1
1
1
1
1
1
1
1
1
1
1
1
1
1
1
1
1
1
1
1
1
1
1
1
1
1
1
1
1
1
1
1
1
1
1
1
1
1
1
1
1
1
1
1
1
1
1
1
1
1
1
1
1
1
1
1
1
1
1
1
1
1
1
1
1
1
1.18989
2.42341
2.69352
2.71566
2.7349
2.75418
2.76959
2.78099
2.78646
2.78689
2.78461
2.77933
2.77173
2.7662
2.76386
2.76512
2.77234
2.78391
2.79431
2.80191
2.80481
2.80424
2.80227
2.80052
2.8008
2.80405
2.80961
2.81392
2.81624
2.81604
2.81402
2.81179
2.81305
2.81621
2.82083
2.8259
2.83044
2.83402
2.83675
2.83887
2.84051
2.84176
2.842
2.84102
2.83986
2.83899
2.83939
2.84221
2.84689
2.85275
2.85881
2.86402
2.86784
2.8703
2.87173
2.87258
2.87345
2.87488
2.87722
2.87992
2.88244
2.88455
2.8858
2.88608
2.88624
2.88648
2.88691
2.88779
2.88945
2.89215
2.89601
2.90089
2.90648
2.91287
2.92127
2.93469
2.95836
2.99901
3.06223
3.14655
3.23815
3.31411
3.35752
3.37095
1
1
1
1
1
1
1
1
1
1
1
1
1
1
1
1
1
1
1
1
1
1
1
1
1
1
1
1
1
1
1
1
1
1
1
1
1
1
1
1
1
1
1
1
1
1
1
1
1
1
1
1
1
1
1
1
1
1
1
1
1
1
1
1
1
1
1
1
1
1
1
1
1
1
1
1
1
1
1
1
1
1
1
1
1
1
1
1
1
1
1
1
1
1
1
1
1
1
1
1
1
1
1
1
1
1
1
1
1.14408
2.38877
2.69199
2.72211
2.74271
2.76072
2.77207
2.78038
2.78417
2.7842
2.78201
2.77693
2.76976
2.76501
2.76356
2.76531
2.77325
2.78486
2.79469
2.80158
2.80385
2.8031
2.80122
2.79993
2.80063
2.80437
2.8101
2.8142
2.81612
2.8156
2.81328
2.81105
2.81236
2.81569
2.82051
2.82569
2.8302
2.8337
2.83642
2.83859
2.84035
2.84165
2.84184
2.84085
2.83964
2.83872
2.83915
2.84208
2.8468
2.85266
2.85867
2.8638
2.86753
2.86992
2.8713
2.87213
2.87304
2.87453
2.87694
2.87972
2.88227
2.88433
2.88556
2.88583
2.88597
2.88625
2.88676
2.88767
2.88928
2.89184
2.89557
2.90038
2.90607
2.91271
2.92148
2.93546
2.9599
3.00161
3.06594
3.15099
3.24255
3.31788
3.36065
3.37393
1
1
1
1
1
1
1
1
1
1
1
1
1
1
1
1
1
1
1
1
1
1
1
1
1
1
1
1
1
1
1
1
1
1
1
1
1
1
1
1
1
1
1
1
1
1
1
1
1
1
1
1
1
1
1
1
1
1
1
1
1
1
1
1
1
1
1
1
1
1
1
1
1
1
1
1
1
1
1
1
1
1
1
1
1
1
1
1
1
1
1
1
1
1
1
1
1
1
1
1
1
1
1
1
1
1
1
1
1.09135
2.353
2.69515
2.73031
2.75096
2.76533
2.77249
2.77865
2.78163
2.78152
2.77945
2.77453
2.76777
2.76379
2.76332
2.76578
2.77451
2.78597
2.79496
2.80107
2.80265
2.80176
2.80004
2.79924
2.80046
2.8047
2.8105
2.81445
2.81589
2.81499
2.81239
2.81027
2.81161
2.81512
2.82012
2.82536
2.82982
2.83323
2.83594
2.8382
2.84012
2.84149
2.84165
2.84065
2.83938
2.83842
2.83889
2.84192
2.84669
2.85256
2.85849
2.86349
2.86712
2.86945
2.87079
2.87162
2.87257
2.87413
2.87659
2.87945
2.88205
2.88411
2.88531
2.88555
2.88563
2.88592
2.88652
2.88751
2.8891
2.89154
2.89509
2.89978
2.90552
2.91239
2.92153
2.93602
2.9612
3.00389
3.06932
3.15514
3.24679
3.32162
3.36383
3.37697
1
1
1
1
1
1
1
1
1
1
1
1
1
1
1
1
1
1
1
1
1
1
1
1
1
1
1
1
1
1
1
1
1
1
1
1
1
1
1
1
1
1
1
1
1
1
1
1
1
1
1
1
1
1
1
1
1
1
1
1
1
1
1
1
1
1
1
1
1
1
1
1
1
1
1
1
1
1
1
1
1
1
1
1
1
1
1
1
1
1
1
1
1
1
1
1
1
1
1
1
1
1
1
1
1
1
1
1
1.03079
2.32176
2.70111
2.73766
2.75669
2.76713
2.77207
2.77668
2.77923
2.77911
2.77714
2.77219
2.76583
2.76253
2.76302
2.76667
2.77614
2.78719
2.79509
2.80034
2.80125
2.80025
2.79874
2.79847
2.80029
2.80505
2.81086
2.81463
2.81552
2.81424
2.81139
2.80943
2.81084
2.81454
2.8197
2.82498
2.82935
2.83266
2.83534
2.83769
2.83979
2.84124
2.84137
2.84037
2.83905
2.83812
2.83866
2.84179
2.8466
2.85243
2.85824
2.86308
2.86661
2.8689
2.87024
2.87108
2.87207
2.87366
2.87613
2.87906
2.88174
2.88386
2.88508
2.88527
2.88527
2.88552
2.88615
2.88724
2.88887
2.89123
2.89461
2.89915
2.90488
2.91194
2.92139
2.93629
2.96212
3.00573
3.07221
3.15885
3.25069
3.32514
3.36684
3.37982
1
1
1
1
1
1
1
1
1
1
1
1
1
1
1
1
1
1
1
1
1
1
1
1
1
1
1
1
1
1
1
1
1
1
1
1
1
1
1
1
1
1
1
1
1
1
1
1
1
1
1
1
1
1
1
1
1
1
1
1
1
1
1
1
1
1
1
1
1
1
1
1
1
1
1
1
1
1
1
1
1
1
1
1
1
1
1
1
1
1
1
1
1
1
1
1
1
1
1
1
1
1
1
1
1
1
1
1
1.00042
2.28881
2.70522
2.74358
2.76013
2.7674
2.77098
2.77487
2.77722
2.77709
2.77493
2.7697
2.76388
2.7614
2.76278
2.76798
2.77811
2.78845
2.79498
2.79936
2.79969
2.79865
2.79736
2.79755
2.80008
2.80535
2.81115
2.81471
2.815
2.81333
2.81028
2.80853
2.81007
2.81396
2.81928
2.82459
2.82887
2.83206
2.83469
2.8371
2.83931
2.84084
2.84095
2.83997
2.83865
2.83781
2.8385
2.84173
2.84654
2.85229
2.85791
2.86255
2.86598
2.86826
2.86966
2.87057
2.87159
2.87316
2.87558
2.87852
2.88129
2.88353
2.88482
2.88499
2.88492
2.88508
2.88569
2.88684
2.88854
2.89087
2.89415
2.89855
2.90421
2.91135
2.92101
2.93625
2.96263
3.00707
3.07452
3.16196
3.25406
3.32822
3.36947
3.38225
1
1
1
1
1
1
1
1
1
1
1
1
1
1
1
1
1
1
1
1
1
1
1
1
1
1
1
1
1
1
1
1
1
1
1
1
1
1
1
1
1
1
1
1
1
1
1
1
1
1
1
1
1
1
1
1
1
1
1
1
1
1
1
1
1
1
1
1
1
1
1
1
1
1
1
1
1
1
1
1
1
1
1
1
1
1
1
1
1
1
1
1
1
1
1
1
1
1
1
1
1
1
1
1
1
1
1
1
1
2.25523
2.70822
2.74882
2.76188
2.76656
2.7695
2.77335
2.77555
2.77527
2.77253
2.76693
2.76199
2.76061
2.76281
2.76967
2.78038
2.78959
2.79458
2.79808
2.79806
2.79694
2.79589
2.79652
2.79976
2.80553
2.81129
2.81461
2.81443
2.81224
2.80906
2.80756
2.80925
2.81336
2.81885
2.82419
2.8284
2.83147
2.83405
2.83648
2.83875
2.84028
2.84036
2.83942
2.83814
2.8375
2.83841
2.84173
2.84652
2.85214
2.8575
2.8619
2.86521
2.86752
2.86903
2.87008
2.87115
2.87267
2.87497
2.87785
2.88067
2.88305
2.88448
2.88472
2.88462
2.88467
2.88519
2.88632
2.88805
2.89043
2.89367
2.89797
2.90351
2.91062
2.92041
2.93592
2.96274
3.0079
3.0762
3.16437
3.25676
3.33071
3.37155
3.38409
1
1
1
1
1
1
1
1
1
1
1
1
1
1
1
1
1
1
1
1
1
1
1
1
1
1
1
1
1
1
1
1
1
1
1
1
1
1
1
1
1
1
1
1
1
1
1
1
1
1
1
1
1
1
1
1
1
1
1
1
1
1
1
1
1
1
1
1
1
1
1
1
1
1
1
1
1
1
1
1
1
1
1
1
1
1
1
1
1
1
1
1
1
1
1
1
1
1
1
1
1
1
1
1
1
1
1
1
1
2.2194
2.71102
2.75347
2.76224
2.76495
2.76801
2.77208
2.77386
2.77321
2.76964
2.76391
2.7602
2.76019
2.76354
2.77187
2.78276
2.79049
2.79402
2.79651
2.79624
2.79505
2.79433
2.79541
2.79935
2.80563
2.81129
2.81429
2.8137
2.81103
2.80777
2.80652
2.80836
2.81269
2.81838
2.82375
2.8279
2.83091
2.83346
2.83589
2.83815
2.83963
2.83962
2.83872
2.83754
2.83715
2.83833
2.84175
2.84652
2.85196
2.85704
2.86115
2.86432
2.86667
2.86835
2.86959
2.87075
2.87221
2.87435
2.87708
2.8799
2.88237
2.884
2.88443
2.88433
2.88431
2.8847
2.88571
2.88742
2.88984
2.89311
2.89737
2.90277
2.90979
2.91962
2.93534
2.96256
3.00828
3.0773
3.16607
3.2587
3.3325
3.37295
3.38521
1
1
1
1
1
1
1
1
1
1
1
1
1
1
1
1
1
1
1
1
1
1
1
1
1
1
1
1
1
1
1
1
1
1
1
1
1
1
1
1
1
1
1
1
1
1
1
1
1
1
1
1
1
1
1
1
1
1
1
1
1
1
1
1
1
1
1
1
1
1
1
1
1
1
1
1
1
1
1
1
1
1
1
1
1
1
1
1
1
1
1
1
1
1
1
1
1
1
1
1
1
1
1
1
1
1
1
1
1
2.18174
2.71441
2.75647
2.76134
2.76344
2.76671
2.77067
2.77168
2.7704
2.76612
2.76087
2.7587
2.76012
2.76527
2.77464
2.78503
2.79104
2.79337
2.79467
2.79407
2.79288
2.79262
2.79425
2.79894
2.80569
2.81119
2.81378
2.8128
2.80976
2.80645
2.80542
2.80738
2.81192
2.81781
2.82322
2.82734
2.83032
2.83288
2.83532
2.83755
2.83895
2.83882
2.83795
2.83688
2.83677
2.83825
2.84177
2.84647
2.85173
2.85652
2.86035
2.86335
2.86573
2.86758
2.86904
2.87034
2.87177
2.87373
2.87629
2.87902
2.88152
2.88336
2.88406
2.88401
2.884
2.88427
2.8851
2.88669
2.8891
2.8924
2.89665
2.90194
2.90887
2.91873
2.93463
2.96219
3.00835
3.07788
3.16712
3.25991
3.33356
3.37366
3.38563
1
1
1
1
1
1
1
1
1
1
1
1
1
1
1
1
1
1
1
1
1
1
1
1
1
1
1
1
1
1
1
1
1
1
1
1
1
1
1
1
1
1
1
1
1
1
1
1
1
1
1
1
1
1
1
1
1
1
1
1
1
1
1
1
1
1
1
1
1
1
1
1
1
1
1
1
1
1
1
1
1
1
1
1
1
1
1
1
1
1
1
1
1
1
1
1
1
1
1
1
1
1
1
1
1
1
1
1
1
2.14219
2.71814
2.75716
2.75989
2.76241
2.76531
2.76855
2.76876
2.76665
2.76206
2.75783
2.75747
2.76081
2.76781
2.7779
2.78709
2.79125
2.79246
2.79262
2.7915
2.79042
2.79069
2.79314
2.7986
2.80579
2.81102
2.81313
2.81182
2.80848
2.80515
2.80426
2.80633
2.81104
2.81713
2.82259
2.82666
2.82964
2.83223
2.83471
2.83693
2.83825
2.83804
2.83721
2.83629
2.83642
2.83819
2.84172
2.84632
2.85139
2.85592
2.85949
2.86234
2.86473
2.86674
2.8684
2.86986
2.87129
2.87309
2.87551
2.87811
2.88057
2.8826
2.88357
2.88362
2.88367
2.88388
2.88452
2.88594
2.88824
2.89151
2.89574
2.90097
2.90786
2.91779
2.93385
2.96168
3.00819
3.07805
3.16756
3.26046
3.33399
3.37384
3.38559
1
1
1
1
1
1
1
1
1
1
1
1
1
1
1
1
1
1
1
1
1
1
1
1
1
1
1
1
1
1
1
1
1
1
1
1
1
1
1
1
1
1
1
1
1
1
1
1
1
1
1
1
1
1
1
1
1
1
1
1
1
1
1
1
1
1
1
1
1
1
1
1
1
1
1
1
1
1
1
1
1
1
1
1
1
1
1
1
1
1
1
1
1
1
1
1
1
1
1
1
1
1
1
1
1
1
1
1
1
2.09849
2.72135
2.75665
2.75891
2.76134
2.76331
2.76546
2.76493
2.76184
2.75773
2.75505
2.75646
2.76245
2.771
2.78142
2.78869
2.79091
2.79119
2.79037
2.7885
2.7878
2.78867
2.79208
2.79831
2.80594
2.8109
2.81246
2.81086
2.80727
2.80392
2.8031
2.80524
2.81007
2.81633
2.82184
2.82588
2.82884
2.83144
2.83396
2.8362
2.83751
2.83732
2.83655
2.83588
2.83624
2.83813
2.84155
2.84599
2.85089
2.8552
2.85857
2.86131
2.86372
2.86586
2.86767
2.86925
2.87069
2.8724
2.87472
2.87724
2.87961
2.88175
2.88296
2.88312
2.88326
2.88347
2.884
2.88521
2.88731
2.89044
2.89461
2.89982
2.90676
2.91682
2.93304
2.96102
3.00775
3.07785
3.16755
3.26053
3.33403
3.37373
3.38531
1
1
1
1
1
1
1
1
1
1
1
1
1
1
1
1
1
1
1
1
1
1
1
1
1
1
1
1
1
1
1
1
1
1
1
1
1
1
1
1
1
1
1
1
1
1
1
1
1
1
1
1
1
1
1
1
1
1
1
1
1
1
1
1
1
1
1
1
1
1
1
1
1
1
1
1
1
1
1
1
1
1
1
1
1
1
1
1
1
1
1
1
1
1
1
1
1
1
1
1
1
1
1
1
1
1
1
1
1
2.04904
2.723
2.75679
2.7577
2.75971
2.76053
2.76133
2.75971
2.75609
2.75319
2.75278
2.75632
2.76478
2.77468
2.78471
2.78951
2.79
2.7896
2.78764
2.78531
2.7851
2.7867
2.79115
2.79819
2.80602
2.8109
2.81184
2.80999
2.80617
2.80276
2.80198
2.80414
2.80902
2.81545
2.82104
2.82503
2.82793
2.8305
2.83303
2.83528
2.83665
2.83666
2.83602
2.83573
2.83626
2.83808
2.84129
2.84551
2.85019
2.85431
2.85756
2.86027
2.86273
2.86497
2.86688
2.86851
2.86995
2.87162
2.87389
2.8764
2.87875
2.88089
2.88223
2.88254
2.88274
2.883
2.88348
2.88451
2.88636
2.88925
2.89327
2.89846
2.90554
2.91582
2.93219
2.96024
3.00701
3.0772
3.16707
3.26018
3.33374
3.37337
3.38488
1
1
1
1
1
1
1
1
1
1
1
1
1
1
1
1
1
1
1
1
1
1
1
1
1
1
1
1
1
1
1
1
1
1
1
1
1
1
1
1
1
1
1
1
1
1
1
1
1
1
1
1
1
1
1
1
1
1
1
1
1
1
1
1
1
1
1
1
1
1
1
1
1
1
1
1
1
1
1
1
1
1
1
1
1
1
1
1
1
1
1
1
1
1
1
1
1
1
1
1
1
1
1
1
1
1
1
1
1
1.99383
2.72283
2.75679
2.7563
2.75763
2.75711
2.75603
2.75274
2.74986
2.749
2.75108
2.75774
2.76798
2.77865
2.7872
2.78959
2.7889
2.7874
2.78448
2.78213
2.78241
2.78493
2.79035
2.79822
2.80611
2.81088
2.81126
2.80924
2.80522
2.80169
2.8009
2.80302
2.80791
2.8145
2.82022
2.82419
2.827
2.82946
2.83192
2.83412
2.8356
2.83598
2.83567
2.83578
2.83641
2.83807
2.841
2.84489
2.84929
2.85323
2.85643
2.8592
2.86176
2.86407
2.86603
2.86766
2.86905
2.8707
2.873
2.87558
2.87796
2.88008
2.88146
2.88186
2.88208
2.88238
2.88289
2.88382
2.88542
2.88801
2.89179
2.89692
2.90417
2.91476
2.93132
2.95938
3.00601
3.07607
3.16596
3.25923
3.33301
3.37277
3.38434
1
1
1
1
1
1
1
1
1
1
1
1
1
1
1
1
1
1
1
1
1
1
1
1
1
1
1
1
1
1
1
1
1
1
1
1
1
1
1
1
1
1
1
1
1
1
1
1
1
1
1
1
1
1
1
1
1
1
1
1
1
1
1
1
1
1
1
1
1
1
1
1
1
1
1
1
1
1
1
1
1
1
1
1
1
1
1
1
1
1
1
1
1
1
1
1
1
1
1
1
1
1
1
1
1
1
1
1
1
1.93261
2.71999
2.75617
2.75454
2.75485
2.75257
2.74889
2.74498
2.74418
2.74553
2.75092
2.76086
2.7719
2.7825
2.78847
2.7889
2.78747
2.78458
2.78098
2.77917
2.78002
2.78342
2.78973
2.79833
2.80627
2.81085
2.81076
2.80857
2.80436
2.80065
2.79978
2.8018
2.80669
2.81348
2.81938
2.82336
2.82608
2.8284
2.83069
2.83278
2.83432
2.83518
2.83547
2.83598
2.8366
2.83807
2.84068
2.84419
2.84824
2.85199
2.85518
2.85807
2.86078
2.86317
2.86515
2.86671
2.86802
2.86966
2.87204
2.87474
2.87722
2.87934
2.88072
2.8811
2.88128
2.8816
2.88216
2.88307
2.88449
2.88678
2.89026
2.89525
2.90268
2.9136
2.93037
2.95837
3.00476
3.07453
3.1643
3.25773
3.33185
3.3719
3.38366
1
1
1
1
1
1
1
1
1
1
1
1
1
1
1
1
1
1
1
1
1
1
1
1
1
1
1
1
1
1
1
1
1
1
1
1
1
1
1
1
1
1
1
1
1
1
1
1
1
1
1
1
1
1
1
1
1
1
1
1
1
1
1
1
1
1
1
1
1
1
1
1
1
1
1
1
1
1
1
1
1
1
1
1
1
1
1
1
1
1
1
1
1
1
1
1
1
1
1
1
1
1
1
1
1
1
1
1
1
1.8636
2.71252
2.75524
2.75258
2.75067
2.74597
2.74039
2.73806
2.73949
2.744
2.75258
2.76497
2.77616
2.78538
2.78857
2.78786
2.78537
2.78134
2.77732
2.77654
2.778
2.78223
2.78942
2.79855
2.80653
2.81081
2.81041
2.80788
2.80346
2.79955
2.79864
2.80049
2.80536
2.81236
2.81847
2.82251
2.82518
2.82733
2.8294
2.83136
2.83298
2.83432
2.83533
2.83622
2.83674
2.83805
2.84032
2.84341
2.84708
2.85065
2.85385
2.8569
2.85976
2.86223
2.8642
2.86567
2.86691
2.86854
2.87101
2.87387
2.87647
2.87866
2.88
2.88027
2.88037
2.88066
2.88127
2.88222
2.88356
2.88559
2.88875
2.89355
2.9011
2.91234
2.9293
2.9572
3.00328
3.07266
3.16221
3.25577
3.3303
3.37077
3.38278
1
1
1
1
1
1
1
1
1
1
1
1
1
1
1
1
1
1
1
1
1
1
1
1
1
1
1
1
1
1
1
1
1
1
1
1
1
1
1
1
1
1
1
1
1
1
1
1
1
1
1
1
1
1
1
1
1
1
1
1
1
1
1
1
1
1
1
1
1
1
1
1
1
1
1
1
1
1
1
1
1
1
1
1
1
1
1
1
1
1
1
1
1
1
1
1
1
1
1
1
1
1
1
1
1
1
1
1
1
1.78448
2.69908
2.75405
2.74951
2.7443
2.73688
2.73215
2.73279
2.73707
2.74498
2.75631
2.76953
2.78001
2.78683
2.78782
2.78622
2.78281
2.77794
2.77385
2.77399
2.77627
2.7814
2.78946
2.79898
2.80692
2.8107
2.81
2.80708
2.80243
2.79837
2.79749
2.79914
2.80396
2.81117
2.81749
2.8216
2.82421
2.8262
2.82805
2.82992
2.83174
2.83356
2.83525
2.83638
2.8368
2.83794
2.83987
2.84253
2.84586
2.84927
2.85253
2.85572
2.85871
2.86123
2.86317
2.86454
2.86574
2.86737
2.86995
2.87298
2.87571
2.87798
2.87926
2.87938
2.87937
2.87961
2.88023
2.88125
2.88257
2.88442
2.88729
2.89188
2.89947
2.91099
2.92809
2.95584
3.00156
3.07051
3.15978
3.25346
3.32841
3.36933
3.38163
1
1
1
1
1
1
1
1
1
1
1
1
1
1
1
1
1
1
1
1
1
1
1
1
1
1
1
1
1
1
1
1
1
1
1
1
1
1
1
1
1
1
1
1
1
1
1
1
1
1
1
1
1
1
1
1
1
1
1
1
1
1
1
1
1
1
1
1
1
1
1
1
1
1
1
1
1
1
1
1
1
1
1
1
1
1
1
1
1
1
1
1
1
1
1
1
1
1
1
1
1
1
1
1
1
1
1
1
1
1.69709
2.67957
2.75056
2.74378
2.73524
2.72764
2.72661
2.72989
2.73752
2.74848
2.76145
2.77394
2.7825
2.78687
2.78647
2.78391
2.77984
2.77452
2.77082
2.7714
2.77469
2.78094
2.78987
2.79972
2.80736
2.81041
2.80935
2.80603
2.80117
2.79711
2.79629
2.79783
2.80261
2.81
2.81644
2.82054
2.82306
2.82489
2.82659
2.82852
2.83069
2.83301
2.83519
2.83641
2.83668
2.83761
2.83924
2.84152
2.84457
2.84791
2.85124
2.85456
2.85763
2.86016
2.86203
2.86331
2.8645
2.86617
2.86887
2.87206
2.87493
2.87726
2.87846
2.87843
2.87831
2.87846
2.87907
2.88017
2.88151
2.88322
2.88584
2.89024
2.89783
2.90957
2.92677
2.95431
2.99964
3.06811
3.15708
3.25085
3.32621
3.36761
3.38018
1
1
1
1
1
1
1
1
1
1
1
1
1
1
1
1
1
1
1
1
1
1
1
1
1
1
1
1
1
1
1
1
1
1
1
1
1
1
1
1
1
1
1
1
1
1
1
1
1
1
1
1
1
1
1
1
1
1
1
1
1
1
1
1
1
1
1
1
1
1
1
1
1
1
1
1
1
1
1
1
1
1
1
1
1
1
1
1
1
1
1
1
1
1
1
1
1
1
1
1
1
1
1
1
1
1
1
1
1
1.60482
2.65206
2.744
2.73577
2.72616
2.72217
2.72393
2.73021
2.74063
2.75393
2.7668
2.77728
2.78336
2.78572
2.78437
2.78113
2.77634
2.77092
2.76803
2.76909
2.7734
2.78085
2.79069
2.80068
2.80764
2.80974
2.8083
2.80461
2.79955
2.79568
2.79507
2.7966
2.80145
2.80898
2.81537
2.81932
2.82167
2.82333
2.82502
2.82721
2.82991
2.83269
2.83511
2.83628
2.83631
2.83704
2.83838
2.84035
2.84322
2.84657
2.85002
2.85343
2.85653
2.85903
2.8608
2.862
2.86319
2.86492
2.86775
2.8711
2.8741
2.87647
2.8776
2.87744
2.87716
2.87722
2.87783
2.87899
2.88036
2.88196
2.88436
2.88862
2.89621
2.90811
2.92536
2.95265
2.99754
3.06551
3.15413
3.24797
3.32375
3.3656
3.37845
1
1
1
1
1
1
1
1
1
1
1
1
1
1
1
1
1
1
1
1
1
1
1
1
1
1
1
1
1
1
1
1
1
1
1
1
1
1
1
1
1
1
1
1
1
1
1
1
1
1
1
1
1
1
1
1
1
1
1
1
1
1
1
1
1
1
1
1
1
1
1
1
1
1
1
1
1
1
1
1
1
1
1
1
1
1
1
1
1
1
1
1
1
1
1
1
1
1
1
1
1
1
1
1
1
1
1
1
1
1.5048
2.61192
2.73508
2.72666
2.72045
2.72046
2.72436
2.73325
2.74586
2.75959
2.77083
2.7788
2.78298
2.78344
2.78142
2.77785
2.77233
2.76717
2.76535
2.76732
2.77272
2.78125
2.79184
2.80165
2.80758
2.80862
2.80672
2.80275
2.79755
2.79406
2.7938
2.79555
2.80064
2.8082
2.81429
2.81794
2.82002
2.82152
2.82337
2.82606
2.8294
2.83256
2.83502
2.83599
2.83578
2.83627
2.8373
2.83901
2.84182
2.84523
2.84881
2.85229
2.85539
2.85784
2.85952
2.86065
2.86183
2.86362
2.86656
2.87004
2.8732
2.8756
2.87668
2.87641
2.87596
2.87592
2.87654
2.87775
2.87912
2.88061
2.88282
2.88698
2.89459
2.90662
2.92389
2.95091
2.99533
3.06272
3.15095
3.24485
3.32104
3.36335
3.37647
1
1
1
1
1
1
1
1
1
1
1
1
1
1
1
1
1
1
1
1
1
1
1
1
1
1
1
1
1
1
1
1
1
1
1
1
1
1
1
1
1
1
1
1
1
1
1
1
1
1
1
1
1
1
1
1
1
1
1
1
1
1
1
1
1
1
1
1
1
1
1
1
1
1
1
1
1
1
1
1
1
1
1
1
1
1
1
1
1
1
1
1
1
1
1
1
1
1
1
1
1
1
1
1
1
1
1
1
1
1.39393
2.5562
2.72604
2.72051
2.71878
2.72112
2.72757
2.73827
2.75146
2.76362
2.77262
2.77845
2.7814
2.78049
2.77786
2.77364
2.76796
2.76368
2.76321
2.76634
2.77273
2.78235
2.79326
2.80229
2.80705
2.80698
2.80455
2.80041
2.79524
2.79226
2.79251
2.79485
2.80023
2.80761
2.81317
2.8164
2.81817
2.8196
2.8218
2.82516
2.82907
2.83248
2.8348
2.83544
2.8351
2.83532
2.83609
2.83761
2.8404
2.84392
2.84757
2.85107
2.85415
2.85656
2.85819
2.85928
2.86046
2.86228
2.86525
2.86883
2.87216
2.87465
2.87571
2.87536
2.87475
2.87458
2.8752
2.87642
2.87779
2.87917
2.88117
2.88527
2.89296
2.90509
2.92238
2.94913
2.99303
3.05977
3.14755
3.24148
3.31808
3.36086
3.37425
1
1
1
1
1
1
1
1
1
1
1
1
1
1
1
1
1
1
1
1
1
1
1
1
1
1
1
1
1
1
1
1
1
1
1
1
1
1
1
1
1
1
1
1
1
1
1
1
1
1
1
1
1
1
1
1
1
1
1
1
1
1
1
1
1
1
1
1
1
1
1
1
1
1
1
1
1
1
1
1
1
1
1
1
1
1
1
1
1
1
1
1
1
1
1
1
1
1
1
1
1
1
1
1
1
1
1
1
1
1.27298
2.48539
2.72023
2.72053
2.72154
2.72535
2.73283
2.74321
2.7552
2.76527
2.77259
2.77685
2.7783
2.77671
2.77369
2.76873
2.76375
2.76082
2.76171
2.76611
2.77351
2.78409
2.79469
2.80236
2.8058
2.80499
2.80182
2.79759
2.79286
2.79046
2.79133
2.79456
2.8001
2.80708
2.81195
2.81467
2.81619
2.81773
2.82049
2.82453
2.82884
2.83233
2.83436
2.83462
2.83418
2.8342
2.83481
2.83623
2.83906
2.84262
2.84628
2.84971
2.85274
2.85515
2.8568
2.85793
2.85913
2.86093
2.86384
2.86745
2.87092
2.87355
2.8747
2.87432
2.87355
2.87324
2.87381
2.87502
2.87637
2.87763
2.87944
2.88351
2.89129
2.90353
2.92084
2.9473
2.99063
3.05667
3.14395
3.23788
3.31492
3.35818
3.37184
1
1
1
1
1
1
1
1
1
1
1
1
1
1
1
1
1
1
1
1
1
1
1
1
1
1
1
1
1
1
1
1
1
1
1
1
1
1
1
1
1
1
1
1
1
1
1
1
1
1
1
1
1
1
1
1
1
1
1
1
1
1
1
1
1
1
1
1
1
1
1
1
1
1
1
1
1
1
1
1
1
1
1
1
1
1
1
1
1
1
1
1
1
1
1
1
1
1
1
1
1
1
1
1
1
1
1
1
1
1.13229
2.39815
2.71821
2.72622
2.72671
2.73061
2.73749
2.74631
2.75656
2.76504
2.77112
2.77411
2.7739
2.77204
2.76859
2.76403
2.76038
2.75908
2.76111
2.76646
2.77503
2.78598
2.79553
2.8017
2.80376
2.80233
2.79861
2.79447
2.79062
2.78892
2.7906
2.79457
2.80006
2.8064
2.81053
2.81276
2.81418
2.8161
2.81956
2.82416
2.82864
2.83203
2.83371
2.83356
2.833
2.8329
2.83348
2.83495
2.83785
2.8414
2.84495
2.84821
2.85114
2.85353
2.85529
2.85658
2.85785
2.85962
2.86238
2.8659
2.86946
2.87228
2.87362
2.8733
2.87242
2.87191
2.87237
2.87351
2.87482
2.87596
2.87761
2.8817
2.88961
2.90194
2.91926
2.94539
2.98811
3.0534
3.14015
3.23409
3.31157
3.35532
3.36927
1
1
1
1
1
1
1
1
1
1
1
1
1
1
1
1
1
1
1
1
1
1
1
1
1
1
1
1
1
1
1
1
1
1
1
1
1
1
1
1
1
1
1
1
1
1
1
1
1
1
1
1
1
1
1
1
1
1
1
1
1
1
1
1
1
1
1
1
1
1
1
1
1
1
1
1
1
1
1
1
1
1
1
1
1
1
1
1
1
1
1
1
1
1
1
1
1
1
1
1
1
1
1
1
1
1
1
1
1
1.00594
2.30849
2.72533
2.73322
2.73216
2.73488
2.74011
2.74756
2.75624
2.76338
2.76799
2.76982
2.76878
2.76671
2.7634
2.76028
2.75803
2.75845
2.76148
2.76763
2.77687
2.7872
2.79533
2.80007
2.80094
2.79904
2.79505
2.79125
2.7887
2.78774
2.79029
2.79474
2.7999
2.8054
2.80886
2.81074
2.81224
2.81475
2.81891
2.82395
2.82844
2.83155
2.83285
2.83236
2.83162
2.83145
2.8321
2.83376
2.83675
2.84026
2.84361
2.8466
2.84933
2.8517
2.85359
2.85516
2.85665
2.85841
2.86091
2.86426
2.86781
2.8708
2.87241
2.87228
2.87133
2.87059
2.87088
2.87187
2.87309
2.87412
2.8757
2.87988
2.88794
2.90035
2.91765
2.94339
2.98544
3.04995
3.13616
3.23012
3.30805
3.35233
3.36654
1
1
1
1
1
1
1
1
1
1
1
1
1
1
1
1
1
1
1
1
1
1
1
1
1
1
1
1
1
1
1
1
1
1
1
1
1
1
1
1
1
1
1
1
1
1
1
1
1
1
1
1
1
1
1
1
1
1
1
1
1
1
1
1
1
1
1
1
1
1
1
1
1
1
1
1
1
1
1
1
1
1
1
1
1
1
1
1
1
1
1
1
1
1
1
1
1
1
1
1
1
1
1
1
1
1
1
1
1
1.00003
2.2084
2.73496
2.73716
2.73558
2.73721
2.74104
2.74716
2.75439
2.75997
2.76335
2.76422
2.7632
2.76143
2.75941
2.7581
2.75725
2.75879
2.76299
2.76955
2.7785
2.78742
2.79405
2.7974
2.79737
2.79523
2.79142
2.7883
2.78709
2.78699
2.79024
2.79483
2.79937
2.80401
2.807
2.80874
2.81047
2.81358
2.81831
2.82364
2.82811
2.83091
2.8318
2.83111
2.83018
2.82993
2.83066
2.83258
2.83569
2.83912
2.84223
2.84491
2.8474
2.84971
2.85175
2.85364
2.85545
2.85726
2.8595
2.86259
2.86606
2.86913
2.87103
2.87121
2.87022
2.86929
2.86935
2.87013
2.87119
2.87211
2.87371
2.87809
2.88633
2.89878
2.91597
2.94125
2.98259
3.04629
3.13198
3.22597
3.30439
3.34922
3.36369
1
1
1
1
1
1
1
1
1
1
1
1
1
1
1
1
1
1
1
1
1
1
1
1
1
1
1
1
1
1
1
1
1
1
1
1
1
1
1
1
1
1
1
1
1
1
1
1
1
1
1
1
1
1
1
1
1
1
1
1
1
1
1
1
1
1
1
1
1
1
1
1
1
1
1
1
1
1
1
1
1
1
1
1
1
1
1
1
1
1
1
1
1
1
1
1
1
1
1
1
1
1
1
1
1
1
1
1
1
1
2.09721
2.73799
2.73886
2.73714
2.73791
2.74048
2.74515
2.75064
2.75491
2.75766
2.75834
2.75823
2.75748
2.7573
2.75724
2.75781
2.76059
2.76552
2.77157
2.77934
2.78667
2.79156
2.79372
2.79322
2.79111
2.78816
2.78621
2.78598
2.78672
2.79047
2.79456
2.79815
2.80219
2.80502
2.80693
2.80898
2.81251
2.81753
2.82299
2.82741
2.82998
2.83062
2.82984
2.82881
2.82846
2.82922
2.83132
2.83453
2.83788
2.84076
2.84316
2.8454
2.84763
2.84982
2.85201
2.85414
2.85609
2.85814
2.86093
2.86426
2.86735
2.86949
2.87001
2.86907
2.868
2.8678
2.86834
2.86914
2.86993
2.87164
2.87632
2.88477
2.89721
2.91421
2.93898
2.97955
3.04242
3.12759
3.22165
3.30058
3.34601
3.36071
1
1
1
1
1
1
1
1
1
1
1
1
1
1
1
1
1
1
1
1
1
1
1
1
1
1
1
1
1
1
1
1
1
1
1
1
1
1
1
1
1
1
1
1
1
1
1
1
1
1
1
1
1
1
1
1
1
1
1
1
1
1
1
1
1
1
1
1
1
1
1
1
1
1
1
1
1
1
1
1
1
1
1
1
1
1
1
1
1
1
1
1
1
1
1
1
1
1
1
1
1
1
1
1
1
1
1
1
1
1
1.97765
2.73094
2.73962
2.73672
2.73657
2.73751
2.7406
2.74482
2.74895
2.75224
2.75396
2.75499
2.75548
2.75669
2.75763
2.75965
2.76334
2.76781
2.77271
2.77906
2.78465
2.78798
2.78925
2.78871
2.78722
2.78578
2.78535
2.78565
2.78721
2.79072
2.79373
2.79624
2.79998
2.803
2.8054
2.80789
2.81165
2.81662
2.82192
2.82615
2.82863
2.8293
2.82854
2.82754
2.82714
2.82787
2.82997
2.83318
2.83643
2.83913
2.84131
2.84339
2.84559
2.8479
2.8503
2.85267
2.8548
2.85674
2.85928
2.86245
2.86553
2.86783
2.86863
2.86782
2.86669
2.86624
2.86649
2.86696
2.8676
2.86951
2.87457
2.88321
2.89559
2.91234
2.93659
2.97636
3.03837
3.12302
3.21716
3.29662
3.34267
3.35759
1
1
1
1
1
1
1
1
1
1
1
1
1
1
1
1
1
1
1
1
1
1
1
1
1
1
1
1
1
1
1
1
1
1
1
1
1
1
1
1
1
1
1
1
1
1
1
1
1
1
1
1
1
1
1
1
1
1
1
1
1
1
1
1
1
1
1
1
1
1
1
1
1
1
1
1
1
1
1
1
1
1
1
1
1
1
1
1
1
1
1
1
1
1
1
1
1
1
1
1
1
1
1
1
1
1
1
1
1
1
1.8459
2.70856
2.7383
2.73413
2.73181
2.73152
2.7337
2.7382
2.74382
2.74861
2.75197
2.75381
2.75542
2.75749
2.75933
2.76217
2.7654
2.76875
2.77244
2.77741
2.78135
2.78359
2.78439
2.78421
2.78391
2.78427
2.7855
2.78628
2.78832
2.79086
2.79242
2.79401
2.7975
2.80097
2.80411
2.80715
2.81103
2.81571
2.82055
2.82442
2.82682
2.8277
2.82718
2.82636
2.82599
2.82668
2.82861
2.83163
2.8347
2.83725
2.83931
2.84136
2.84364
2.84607
2.84858
2.85109
2.8533
2.85518
2.85759
2.86063
2.86371
2.8661
2.86711
2.86646
2.86531
2.86462
2.86456
2.86476
2.86521
2.86736
2.87283
2.88158
2.89385
2.9103
2.93405
2.97301
3.03418
3.11832
3.21252
3.2925
3.33919
3.35431
1
1
1
1
1
1
1
1
1
1
1
1
1
1
1
1
1
1
1
1
1
1
1
1
1
1
1
1
1
1
1
1
1
1
1
1
1
1
1
1
1
1
1
1
1
1
1
1
1
1
1
1
1
1
1
1
1
1
1
1
1
1
1
1
1
1
1
1
1
1
1
1
1
1
1
1
1
1
1
1
1
1
1
1
1
1
1
1
1
1
1
1
1
1
1
1
1
1
1
1
1
1
1
1
1
1
1
1
1
1
1.69566
2.66697
2.73328
2.7277
2.724
2.72402
2.72683
2.73287
2.7407
2.7472
2.75188
2.75453
2.75687
2.75946
2.76167
2.76409
2.7661
2.76822
2.77064
2.77409
2.77691
2.77869
2.77952
2.78011
2.78122
2.78351
2.7863
2.78758
2.78956
2.79071
2.79078