/*--------------------------------*- C++ -*----------------------------------*\
  =========                 |
  \\      /  F ield         | OpenFOAM: The Open Source CFD Toolbox
   \\    /   O peration     | Website:  https://openfoam.org
    \\  /    A nd           | Version:  7
     \\/     M anipulation  |
\*---------------------------------------------------------------------------*/
FoamFile
{
    version     2.0;
    format      ascii;
    class       volScalarField;
    location    "3.7";
    object      p;
}
// * * * * * * * * * * * * * * * * * * * * * * * * * * * * * * * * * * * * * //

dimensions      [1 -1 -2 0 0 0 0];

internalField   nonuniform List<scalar> 
258048
(
1
1
1
1
1
1
1
1
1
1
1
1
1
1
1
1
1
1
1
1
1
1
1
1
1
1
1
1
1
1
1
1
1
1
1
1
1
1
1
1
1
1
1
1
1
1
1
1
1
1
1
1
1
1
1
1
1
1
1
1
1
1
1
1
1
1
1
1
1
1
1
1
1
1
1
1
1
1
1
1
1
1
1
1
1
1
1
1
1
1
1
1
1
1
1
1
1
1
4.02741
10.0239
10.3716
10.349
10.3843
10.4557
10.5287
10.5887
10.6307
10.6453
10.6407
10.6362
10.6442
10.6735
10.7271
10.7901
10.8432
10.8769
10.8866
10.8794
10.8714
10.8801
10.9155
10.9781
11.0461
11.1002
11.13
11.1264
11.1073
11.0957
11.1128
11.1694
11.2445
11.304
11.3324
11.3183
11.2868
11.2688
11.2888
11.3515
11.423
11.477
11.4971
11.4849
11.4669
11.4652
11.4926
11.5421
11.5889
11.6131
11.6089
11.5955
11.5901
11.6102
11.6592
11.7142
11.752
11.7591
11.7472
11.7355
11.7385
11.7618
11.798
11.8269
11.8367
11.8353
11.8365
11.8492
11.8781
11.913
11.9354
11.9382
11.9313
11.9256
11.9287
11.9405
11.9565
11.9689
11.9753
11.9799
11.987
11.9985
12.0121
12.021
12.0232
12.0232
12.0244
12.0278
12.0329
12.038
12.0412
12.0433
12.0447
12.0459
1
1
1
1
1
1
1
1
1
1
1
1
1
1
1
1
1
1
1
1
1
1
1
1
1
1
1
1
1
1
1
1
1
1
1
1
1
1
1
1
1
1
1
1
1
1
1
1
1
1
1
1
1
1
1
1
1
1
1
1
1
1
1
1
1
1
1
1
1
1
1
1
1
1
1
1
1
1
1
1
1
1
1
1
1
1
1
1
1
1
1
1
1
1
1
1
1
1
4.00147
9.98414
10.3812
10.3756
10.4075
10.4636
10.5261
10.5788
10.6131
10.6293
10.6359
10.6424
10.6572
10.6857
10.7298
10.7859
10.838
10.8726
10.885
10.8817
10.8777
10.8895
10.9242
10.98
11.0429
11.0945
11.1228
11.1217
11.1072
11.1006
11.1196
11.1725
11.2433
11.3012
11.3295
11.318
11.2897
11.2745
11.2932
11.3527
11.4225
11.476
11.4973
11.4868
11.4705
11.4684
11.4937
11.5412
11.5876
11.6127
11.6102
11.5982
11.5931
11.6122
11.6596
11.7138
11.7516
11.7599
11.7487
11.7374
11.74
11.762
11.7973
11.8266
11.8374
11.8367
11.8381
11.8504
11.8781
11.912
11.9343
11.9382
11.9319
11.9266
11.9295
11.9404
11.9553
11.9673
11.9745
11.98
11.9877
11.9992
12.0117
12.0196
12.0217
12.0221
12.0241
12.0279
12.0328
12.0371
12.0397
12.042
12.0441
12.0457
1
1
1
1
1
1
1
1
1
1
1
1
1
1
1
1
1
1
1
1
1
1
1
1
1
1
1
1
1
1
1
1
1
1
1
1
1
1
1
1
1
1
1
1
1
1
1
1
1
1
1
1
1
1
1
1
1
1
1
1
1
1
1
1
1
1
1
1
1
1
1
1
1
1
1
1
1
1
1
1
1
1
1
1
1
1
1
1
1
1
1
1
1
1
1
1
1
1
3.95851
9.93582
10.3834
10.3997
10.4369
10.4794
10.5253
10.5639
10.5901
10.6068
10.622
10.6421
10.6689
10.7013
10.7388
10.7839
10.8286
10.8604
10.875
10.8771
10.8809
10.8998
10.9357
10.9861
11.0421
11.0875
11.1103
11.1092
11.1001
11.1019
11.1268
11.1779
11.2421
11.2944
11.3188
11.3093
11.2878
11.2795
11.2994
11.3542
11.4186
11.4689
11.4903
11.4834
11.4713
11.4712
11.4945
11.5378
11.5812
11.606
11.6061
11.5975
11.5948
11.6135
11.6581
11.7098
11.7466
11.756
11.7468
11.7371
11.7396
11.7602
11.7934
11.8221
11.8341
11.8348
11.8374
11.85
11.8767
11.9087
11.9302
11.9352
11.9303
11.9262
11.9294
11.9397
11.9531
11.9643
11.9718
11.9786
11.9878
11.9997
12.0112
12.0177
12.019
12.0199
12.023
12.0276
12.0325
12.036
12.0378
12.0401
12.043
12.0455
1
1
1
1
1
1
1
1
1
1
1
1
1
1
1
1
1
1
1
1
1
1
1
1
1
1
1
1
1
1
1
1
1
1
1
1
1
1
1
1
1
1
1
1
1
1
1
1
1
1
1
1
1
1
1
1
1
1
1
1
1
1
1
1
1
1
1
1
1
1
1
1
1
1
1
1
1
1
1
1
1
1
1
1
1
1
1
1
1
1
1
1
1
1
1
1
1
1
3.90775
9.87585
10.3888
10.4151
10.4574
10.4925
10.5226
10.5481
10.5677
10.5848
10.6114
10.6471
10.6837
10.7168
10.7477
10.782
10.819
10.8486
10.866
10.8751
10.8887
10.9144
10.949
10.9924
11.0393
11.0771
11.0959
11.0979
11.0966
11.1074
11.1373
11.1838
11.2388
11.2846
11.3068
11.3014
11.2883
11.2872
11.3081
11.357
11.4147
11.461
11.4825
11.4806
11.4734
11.4752
11.4965
11.5353
11.5752
11.5991
11.6024
11.5977
11.5977
11.6164
11.6581
11.7067
11.7419
11.7522
11.7455
11.738
11.741
11.7603
11.7911
11.8183
11.8309
11.8334
11.8374
11.8506
11.8763
11.9062
11.9268
11.9324
11.9288
11.926
11.9296
11.9392
11.9513
11.9616
11.9691
11.9769
11.9874
11.9996
12.0101
12.0154
12.0161
12.0173
12.0212
12.0265
12.0315
12.0342
12.0354
12.0377
12.0413
12.0446
1
1
1
1
1
1
1
1
1
1
1
1
1
1
1
1
1
1
1
1
1
1
1
1
1
1
1
1
1
1
1
1
1
1
1
1
1
1
1
1
1
1
1
1
1
1
1
1
1
1
1
1
1
1
1
1
1
1
1
1
1
1
1
1
1
1
1
1
1
1
1
1
1
1
1
1
1
1
1
1
1
1
1
1
1
1
1
1
1
1
1
1
1
1
1
1
1
1
3.84577
9.81394
10.4007
10.4229
10.4646
10.4959
10.5186
10.5354
10.5527
10.571
10.6074
10.6536
10.6965
10.7307
10.7567
10.7807
10.8081
10.8349
10.856
10.8742
10.8989
10.9296
10.962
10.9978
11.0348
11.0642
11.0803
11.0867
11.0961
11.1172
11.1494
11.1894
11.2336
11.2711
11.2909
11.2927
11.2892
11.2959
11.319
11.3613
11.4101
11.4503
11.4717
11.4763
11.4748
11.48
11.5003
11.5335
11.5677
11.5903
11.5975
11.5968
11.6005
11.6204
11.6587
11.7027
11.7353
11.7463
11.7426
11.7382
11.7424
11.7606
11.7886
11.8133
11.8264
11.8309
11.8365
11.8508
11.8757
11.9034
11.9226
11.9287
11.9263
11.9247
11.9286
11.9379
11.9492
11.9588
11.9664
11.9748
11.986
11.9984
12.0081
12.0127
12.0132
12.0146
12.0189
12.0246
12.0295
12.0319
12.0327
12.0349
12.0392
12.043
1
1
1
1
1
1
1
1
1
1
1
1
1
1
1
1
1
1
1
1
1
1
1
1
1
1
1
1
1
1
1
1
1
1
1
1
1
1
1
1
1
1
1
1
1
1
1
1
1
1
1
1
1
1
1
1
1
1
1
1
1
1
1
1
1
1
1
1
1
1
1
1
1
1
1
1
1
1
1
1
1
1
1
1
1
1
1
1
1
1
1
1
1
1
1
1
1
1
3.76237
9.76242
10.4066
10.4262
10.4664
10.4918
10.5117
10.5259
10.5431
10.5659
10.6091
10.6615
10.7081
10.7414
10.7621
10.7771
10.7965
10.8219
10.8482
10.8769
10.9108
10.9434
10.9717
10.999
11.0258
11.0484
11.0646
11.0792
11.1007
11.1295
11.1602
11.1919
11.2248
11.2545
11.2748
11.2844
11.292
11.3065
11.33
11.3647
11.404
11.438
11.4599
11.4707
11.4763
11.4857
11.5047
11.5319
11.5599
11.5805
11.5908
11.5954
11.6038
11.6251
11.6598
11.6985
11.7277
11.7393
11.7388
11.7378
11.7436
11.7612
11.7864
11.8086
11.8213
11.8274
11.835
11.8505
11.8747
11.9004
11.9184
11.9247
11.9234
11.9226
11.9266
11.9357
11.9469
11.9564
11.9641
11.9726
11.9836
11.9957
12.0053
12.0098
12.0105
12.0119
12.0161
12.0217
12.0265
12.0288
12.0298
12.0321
12.0365
12.0403
1
1
1
1
1
1
1
1
1
1
1
1
1
1
1
1
1
1
1
1
1
1
1
1
1
1
1
1
1
1
1
1
1
1
1
1
1
1
1
1
1
1
1
1
1
1
1
1
1
1
1
1
1
1
1
1
1
1
1
1
1
1
1
1
1
1
1
1
1
1
1
1
1
1
1
1
1
1
1
1
1
1
1
1
1
1
1
1
1
1
1
1
1
1
1
1
1
1
3.64296
9.72068
10.4
10.423
10.4652
10.4871
10.5052
10.519
10.5378
10.5668
10.6142
10.6684
10.7149
10.7454
10.7609
10.7694
10.7844
10.8113
10.8444
10.883
10.9222
10.9537
10.9762
10.9946
11.0121
11.0309
11.051
11.0765
11.1093
11.1416
11.1683
11.1917
11.2142
11.2377
11.2597
11.2775
11.2961
11.3167
11.3389
11.3661
11.3964
11.425
11.4479
11.4648
11.4779
11.4915
11.5087
11.5297
11.5516
11.57
11.5829
11.593
11.6066
11.6294
11.6609
11.6939
11.7192
11.7313
11.7343
11.7365
11.7443
11.7614
11.7839
11.8036
11.816
11.8237
11.8333
11.8496
11.8727
11.8965
11.9136
11.9204
11.9202
11.9199
11.9237
11.9326
11.9437
11.9538
11.9621
11.9704
11.9805
11.9918
12.0013
12.0065
12.0078
12.0091
12.0129
12.0178
12.0224
12.0252
12.0268
12.0293
12.0333
12.0366
1
1
1
1
1
1
1
1
1
1
1
1
1
1
1
1
1
1
1
1
1
1
1
1
1
1
1
1
1
1
1
1
1
1
1
1
1
1
1
1
1
1
1
1
1
1
1
1
1
1
1
1
1
1
1
1
1
1
1
1
1
1
1
1
1
1
1
1
1
1
1
1
1
1
1
1
1
1
1
1
1
1
1
1
1
1
1
1
1
1
1
1
1
1
1
1
1
1
3.49379
9.69002
10.3864
10.4165
10.4592
10.4801
10.4991
10.5148
10.5366
10.5709
10.6195
10.6716
10.7148
10.7416
10.7535
10.7598
10.7757
10.8062
10.846
10.8909
10.9304
10.9582
10.9745
10.9846
10.9962
11.015
11.0422
11.0787
11.1185
11.1507
11.1721
11.1877
11.2029
11.2227
11.2474
11.2734
11.3006
11.3245
11.344
11.3645
11.3871
11.4115
11.4365
11.4601
11.4803
11.4968
11.5113
11.5263
11.5426
11.5593
11.5751
11.5907
11.6092
11.633
11.6609
11.6887
11.7105
11.7232
11.7294
11.7349
11.7445
11.7606
11.7801
11.7977
11.8105
11.8206
11.8321
11.8483
11.8693
11.891
11.9076
11.9157
11.9171
11.9172
11.9204
11.9283
11.9395
11.9506
11.9599
11.9683
11.9773
11.9872
11.9963
12.0024
12.0048
12.0062
12.0091
12.0133
12.0176
12.021
12.0235
12.0262
12.0297
12.032
1
1
1
1
1
1
1
1
1
1
1
1
1
1
1
1
1
1
1
1
1
1
1
1
1
1
1
1
1
1
1
1
1
1
1
1
1
1
1
1
1
1
1
1
1
1
1
1
1
1
1
1
1
1
1
1
1
1
1
1
1
1
1
1
1
1
1
1
1
1
1
1
1
1
1
1
1
1
1
1
1
1
1
1
1
1
1
1
1
1
1
1
1
1
1
1
1
1
3.33604
9.65082
10.3718
10.4076
10.4497
10.4728
10.4948
10.5139
10.5385
10.5756
10.6228
10.6706
10.7088
10.7321
10.7437
10.7533
10.7732
10.8073
10.8506
10.8959
10.933
10.9564
10.9673
10.9725
10.9827
11.0046
11.0392
11.0827
11.1243
11.1546
11.1717
11.1818
11.1932
11.212
11.2397
11.2722
11.3043
11.3287
11.3453
11.3602
11.3771
11.3994
11.4275
11.4575
11.4828
11.5001
11.5113
11.5209
11.5331
11.5492
11.5684
11.5894
11.6115
11.6348
11.659
11.6822
11.7016
11.7156
11.7252
11.7337
11.7441
11.7579
11.774
11.7901
11.8048
11.8183
11.8319
11.8472
11.8648
11.8835
11.8998
11.9103
11.9142
11.9149
11.9172
11.9234
11.9338
11.9462
11.9573
11.9663
11.9743
11.9824
11.9906
11.9973
12.001
12.0025
12.0049
12.0085
12.0123
12.0163
12.0197
12.0225
12.0254
12.0267
1
1
1
1
1
1
1
1
1
1
1
1
1
1
1
1
1
1
1
1
1
1
1
1
1
1
1
1
1
1
1
1
1
1
1
1
1
1
1
1
1
1
1
1
1
1
1
1
1
1
1
1
1
1
1
1
1
1
1
1
1
1
1
1
1
1
1
1
1
1
1
1
1
1
1
1
1
1
1
1
1
1
1
1
1
1
1
1
1
1
1
1
1
1
1
1
1
1
3.17343
9.59143
10.3616
10.3976
10.4408
10.4675
10.4933
10.5158
10.5424
10.5789
10.6215
10.6639
10.6981
10.7215
10.7375
10.7529
10.7765
10.8114
10.8532
10.8948
10.928
10.948
10.9571
10.9631
10.9758
11.0012
11.0396
11.0842
11.1243
11.1525
11.1673
11.1754
11.1862
11.206
11.236
11.2716
11.305
11.3289
11.3431
11.354
11.3677
11.3899
11.4217
11.4559
11.4837
11.5002
11.508
11.5136
11.5235
11.5408
11.5643
11.5896
11.6131
11.6343
11.6544
11.6739
11.6925
11.709
11.7227
11.7336
11.7432
11.7532
11.7655
11.7809
11.7989
11.817
11.8328
11.8462
11.8594
11.8743
11.8904
11.9042
11.9116
11.9132
11.9142
11.918
11.9271
11.9404
11.9538
11.9643
11.9716
11.9777
11.9843
11.991
11.9958
11.9982
12.0003
12.0033
12.0068
12.0112
12.0152
12.0181
12.0207
12.0211
1
1
1
1
1
1
1
1
1
1
1
1
1
1
1
1
1
1
1
1
1
1
1
1
1
1
1
1
1
1
1
1
1
1
1
1
1
1
1
1
1
1
1
1
1
1
1
1
1
1
1
1
1
1
1
1
1
1
1
1
1
1
1
1
1
1
1
1
1
1
1
1
1
1
1
1
1
1
1
1
1
1
1
1
1
1
1
1
1
1
1
1
1
1
1
1
1
1
3.0017
9.5059
10.3574
10.3907
10.4351
10.465
10.4937
10.5183
10.5455
10.5797
10.6176
10.6547
10.6868
10.7134
10.7353
10.756
10.7816
10.8145
10.8519
10.8883
10.9176
10.9366
10.9479
10.9582
10.975
11.0029
11.0412
11.0827
11.1195
11.1458
11.1605
11.1699
11.1827
11.2044
11.2354
11.2709
11.3032
11.3254
11.3374
11.3465
11.3598
11.3841
11.4188
11.4545
11.4819
11.4963
11.5008
11.5043
11.5144
11.535
11.5629
11.5907
11.6135
11.6313
11.6468
11.6636
11.6831
11.7036
11.7216
11.7338
11.7412
11.7467
11.755
11.7705
11.7928
11.816
11.8336
11.8447
11.853
11.864
11.8799
11.8973
11.9086
11.911
11.9105
11.9123
11.9195
11.9333
11.9493
11.9618
11.9689
11.9733
11.9779
11.984
11.9898
11.9933
11.9954
11.9979
12.0012
12.0054
12.0098
12.0131
12.0155
12.0151
1
1
1
1
1
1
1
1
1
1
1
1
1
1
1
1
1
1
1
1
1
1
1
1
1
1
1
1
1
1
1
1
1
1
1
1
1
1
1
1
1
1
1
1
1
1
1
1
1
1
1
1
1
1
1
1
1
1
1
1
1
1
1
1
1
1
1
1
1
1
1
1
1
1
1
1
1
1
1
1
1
1
1
1
1
1
1
1
1
1
1
1
1
1
1
1
1
1
2.81773
9.39266
10.3535
10.3875
10.4338
10.4656
10.495
10.5196
10.546
10.5775
10.6112
10.6451
10.6788
10.7107
10.7375
10.7604
10.7842
10.8129
10.8451
10.8772
10.9057
10.9273
10.9426
10.9568
10.9763
11.0049
11.0415
11.0794
11.112
11.1362
11.1524
11.1648
11.1807
11.2047
11.2357
11.2696
11.2993
11.319
11.3293
11.3384
11.3533
11.3807
11.4173
11.4529
11.4782
11.4892
11.491
11.494
11.5068
11.5322
11.5635
11.592
11.6124
11.6257
11.6371
11.6523
11.6741
11.6995
11.7211
11.7335
11.7375
11.7387
11.7438
11.76
11.787
11.8149
11.8336
11.8419
11.846
11.8535
11.8695
11.8902
11.9048
11.9079
11.9062
11.906
11.9118
11.9259
11.944
11.9586
11.9657
11.9684
11.9712
11.9764
11.9829
11.9875
11.9897
11.9918
11.9949
11.9988
12.0036
12.0074
12.0097
12.0086
1
1
1
1
1
1
1
1
1
1
1
1
1
1
1
1
1
1
1
1
1
1
1
1
1
1
1
1
1
1
1
1
1
1
1
1
1
1
1
1
1
1
1
1
1
1
1
1
1
1
1
1
1
1
1
1
1
1
1
1
1
1
1
1
1
1
1
1
1
1
1
1
1
1
1
1
1
1
1
1
1
1
1
1
1
1
1
1
1
1
1
1
1
1
1
1
1
1
2.62587
9.25205
10.3518
10.386
10.4341
10.4667
10.4948
10.5182
10.5434
10.5729
10.6044
10.6387
10.6761
10.7119
10.7402
10.7616
10.7819
10.8063
10.8349
10.8673
10.8981
10.922
10.939
10.9548
10.9754
11.0038
11.0391
11.0747
11.1047
11.1276
11.1448
11.1599
11.1787
11.2048
11.2358
11.2676
11.2939
11.3106
11.3197
11.3298
11.3476
11.378
11.4157
11.4499
11.472
11.4796
11.48
11.4843
11.5012
11.5309
11.5643
11.5919
11.6089
11.6179
11.6264
11.6416
11.6668
11.6966
11.7202
11.7306
11.7309
11.7294
11.7333
11.7516
11.7827
11.8132
11.8313
11.8365
11.8374
11.8433
11.8602
11.8836
11.8999
11.9031
11.9003
11.8988
11.9041
11.9187
11.9386
11.9544
11.9614
11.9627
11.9642
11.9688
11.9759
11.9812
11.9833
11.985
11.9878
11.9918
11.9971
12.0014
12.0033
12.0014
1
1
1
1
1
1
1
1
1
1
1
1
1
1
1
1
1
1
1
1
1
1
1
1
1
1
1
1
1
1
1
1
1
1
1
1
1
1
1
1
1
1
1
1
1
1
1
1
1
1
1
1
1
1
1
1
1
1
1
1
1
1
1
1
1
1
1
1
1
1
1
1
1
1
1
1
1
1
1
1
1
1
1
1
1
1
1
1
1
1
1
1
1
1
1
1
1
1
2.42985
9.08396
10.3544
10.3865
10.4346
10.4663
10.4924
10.5142
10.5384
10.5677
10.6001
10.6373
10.6776
10.7135
10.739
10.7567
10.7736
10.796
10.8262
10.8626
10.8965
10.9202
10.9351
10.9492
10.9697
10.9988
11.0351
11.0708
11.0996
11.1209
11.138
11.1543
11.1752
11.2033
11.2347
11.2647
11.2878
11.3017
11.3098
11.3208
11.3413
11.3742
11.4123
11.4449
11.4639
11.4693
11.4697
11.4765
11.4974
11.5299
11.5636
11.589
11.6022
11.6081
11.6156
11.6328
11.6621
11.6943
11.7168
11.7237
11.7212
11.7186
11.724
11.7466
11.7807
11.8107
11.8253
11.8273
11.8272
11.8339
11.853
11.878
11.894
11.8961
11.8926
11.8908
11.8967
11.9126
11.9335
11.9494
11.9553
11.9555
11.9565
11.9613
11.969
11.9743
11.9758
11.9769
11.9797
11.9844
11.9906
11.9952
11.9963
11.9932
1
1
1
1
1
1
1
1
1
1
1
1
1
1
1
1
1
1
1
1
1
1
1
1
1
1
1
1
1
1
1
1
1
1
1
1
1
1
1
1
1
1
1
1
1
1
1
1
1
1
1
1
1
1
1
1
1
1
1
1
1
1
1
1
1
1
1
1
1
1
1
1
1
1
1
1
1
1
1
1
1
1
1
1
1
1
1
1
1
1
1
1
1
1
1
1
1
1
2.2296
8.89011
10.3598
10.3911
10.4361
10.4644
10.4869
10.5071
10.5322
10.5634
10.599
10.6393
10.68
10.7125
10.7327
10.7455
10.7612
10.7865
10.8226
10.8636
10.8982
10.9192
10.9298
10.9405
10.9606
10.992
11.0316
11.0687
11.0966
11.1156
11.1313
11.1479
11.1702
11.2006
11.233
11.2618
11.2824
11.2937
11.3007
11.3119
11.3342
11.3687
11.4068
11.4379
11.455
11.4596
11.4614
11.4713
11.4954
11.5289
11.561
11.5827
11.5923
11.5966
11.6055
11.6275
11.6607
11.6924
11.7104
11.712
11.7079
11.7065
11.7172
11.746
11.7812
11.8066
11.8153
11.8147
11.8151
11.8253
11.8484
11.8736
11.8873
11.8867
11.8825
11.8817
11.8895
11.9075
11.9288
11.9432
11.9471
11.9464
11.948
11.954
11.9623
11.967
11.9672
11.9675
11.9707
11.9768
11.9843
11.9889
11.9887
11.984
1
1
1
1
1
1
1
1
1
1
1
1
1
1
1
1
1
1
1
1
1
1
1
1
1
1
1
1
1
1
1
1
1
1
1
1
1
1
1
1
1
1
1
1
1
1
1
1
1
1
1
1
1
1
1
1
1
1
1
1
1
1
1
1
1
1
1
1
1
1
1
1
1
1
1
1
1
1
1
1
1
1
1
1
1
1
1
1
1
1
1
1
1
1
1
1
1
1
2.02451
8.67258
10.3683
10.3955
10.4341
10.4589
10.4788
10.4998
10.5276
10.5616
10.6009
10.6423
10.6803
10.7068
10.7208
10.731
10.7491
10.7806
10.8234
10.8668
10.8987
10.9146
10.9203
10.9287
10.9502
10.986
11.0289
11.0668
11.0931
11.1095
11.1233
11.1397
11.1637
11.1968
11.2304
11.2585
11.2771
11.2862
11.2919
11.3029
11.3263
11.3614
11.3992
11.429
11.445
11.45
11.454
11.4674
11.494
11.5273
11.5564
11.5735
11.5795
11.5836
11.5965
11.6252
11.6618
11.69
11.7007
11.6968
11.6912
11.6935
11.7134
11.749
11.7829
11.8006
11.802
11.7994
11.8017
11.818
11.8459
11.8701
11.8792
11.8754
11.8702
11.8712
11.8825
11.9035
11.9246
11.9359
11.937
11.9358
11.9387
11.947
11.9557
11.9591
11.9576
11.9569
11.9609
11.9692
11.9782
11.9823
11.9803
11.9735
1
1
1
1
1
1
1
1
1
1
1
1
1
1
1
1
1
1
1
1
1
1
1
1
1
1
1
1
1
1
1
1
1
1
1
1
1
1
1
1
1
1
1
1
1
1
1
1
1
1
1
1
1
1
1
1
1
1
1
1
1
1
1
1
1
1
1
1
1
1
1
1
1
1
1
1
1
1
1
1
1
1
1
1
1
1
1
1
1
1
1
1
1
1
1
1
1
1
1.82255
8.42366
10.3738
10.4011
10.4308
10.4512
10.47
10.4932
10.5239
10.561
10.6027
10.6442
10.6782
10.6985
10.7079
10.7186
10.7415
10.7794
10.8263
10.8693
10.8964
10.9055
10.9072
10.9169
10.9434
10.9838
11.0278
11.0642
11.0874
11.101
11.1134
11.1308
11.1572
11.1928
11.2271
11.2541
11.2708
11.2782
11.2833
11.2946
11.3191
11.3546
11.3914
11.4195
11.4345
11.4403
11.447
11.4641
11.4932
11.5257
11.5508
11.5624
11.5648
11.5694
11.5887
11.6248
11.6632
11.6864
11.6881
11.6794
11.6727
11.6808
11.7117
11.7532
11.7833
11.7918
11.7869
11.7821
11.7879
11.8118
11.8446
11.8664
11.8696
11.8624
11.8562
11.8596
11.8759
11.9003
11.9201
11.9274
11.9255
11.924
11.9289
11.94
11.949
11.9504
11.947
11.9454
11.9505
11.9614
11.9719
11.9753
11.9709
11.9621
1
1
1
1
1
1
1
1
1
1
1
1
1
1
1
1
1
1
1
1
1
1
1
1
1
1
1
1
1
1
1
1
1
1
1
1
1
1
1
1
1
1
1
1
1
1
1
1
1
1
1
1
1
1
1
1
1
1
1
1
1
1
1
1
1
1
1
1
1
1
1
1
1
1
1
1
1
1
1
1
1
1
1
1
1
1
1
1
1
1
1
1
1
1
1
1
1
1
1.63498
8.14179
10.3798
10.4046
10.4247
10.4424
10.4625
10.4892
10.523
10.562
10.6028
10.6404
10.6684
10.6846
10.695
10.7114
10.7411
10.7824
10.8263
10.8625
10.8823
10.8879
10.8924
10.9099
10.9431
10.9854
11.027
11.0588
11.0774
11.0888
11.1018
11.1224
11.1526
11.1896
11.2231
11.2479
11.2624
11.2682
11.2734
11.2865
11.3132
11.3492
11.3845
11.4102
11.4234
11.4294
11.4386
11.4598
11.4916
11.5235
11.5442
11.5505
11.5497
11.5554
11.5818
11.6244
11.6625
11.6802
11.6746
11.6612
11.6548
11.6704
11.7114
11.7556
11.7809
11.7807
11.7708
11.7647
11.7753
11.8071
11.8425
11.8612
11.8588
11.8482
11.8415
11.8478
11.8696
11.8973
11.9148
11.9174
11.9131
11.9115
11.9187
11.9325
11.9415
11.9409
11.9356
11.9333
11.9397
11.9532
11.9651
11.9674
11.9605
11.9501
1
1
1
1
1
1
1
1
1
1
1
1
1
1
1
1
1
1
1
1
1
1
1
1
1
1
1
1
1
1
1
1
1
1
1
1
1
1
1
1
1
1
1
1
1
1
1
1
1
1
1
1
1
1
1
1
1
1
1
1
1
1
1
1
1
1
1
1
1
1
1
1
1
1
1
1
1
1
1
1
1
1
1
1
1
1
1
1
1
1
1
1
1
1
1
1
1
1
1.46819
7.82795
10.3828
10.4034
10.4177
10.4357
10.458
10.4877
10.5237
10.5627
10.6008
10.6334
10.6567
10.6719
10.6868
10.7104
10.7452
10.7859
10.8239
10.851
10.8642
10.8702
10.8828
10.9098
10.9475
10.9882
11.0247
11.0496
11.0633
11.0745
11.0914
11.1178
11.1514
11.1873
11.2169
11.237
11.2485
11.2539
11.2614
11.2792
11.3096
11.3459
11.3789
11.4011
11.4118
11.4175
11.429
11.4542
11.4885
11.5194
11.5361
11.538
11.5357
11.544
11.5761
11.622
11.6578
11.6699
11.6597
11.644
11.6402
11.6638
11.7109
11.7536
11.7731
11.7672
11.7542
11.7492
11.7655
11.8033
11.8384
11.8527
11.846
11.8329
11.8267
11.8367
11.8637
11.8931
11.9078
11.9061
11.8999
11.899
11.9087
11.9243
11.9329
11.9304
11.9235
11.921
11.9287
11.9446
11.9574
11.9584
11.9493
11.9378
1
1
1
1
1
1
1
1
1
1
1
1
1
1
1
1
1
1
1
1
1
1
1
1
1
1
1
1
1
1
1
1
1
1
1
1
1
1
1
1
1
1
1
1
1
1
1
1
1
1
1
1
1
1
1
1
1
1
1
1
1
1
1
1
1
1
1
1
1
1
1
1
1
1
1
1
1
1
1
1
1
1
1
1
1
1
1
1
1
1
1
1
1
1
1
1
1
1
1.31406
7.48927
10.3822
10.3966
10.4096
10.4293
10.4545
10.4863
10.5222
10.5593
10.5938
10.6225
10.6445
10.6625
10.6833
10.7122
10.7482
10.7848
10.8148
10.8343
10.8456
10.8571
10.8799
10.9144
10.953
10.9891
11.0177
11.0351
11.0457
11.0602
11.0846
11.1175
11.1528
11.1854
11.2092
11.2231
11.2318
11.238
11.2502
11.2746
11.308
11.3432
11.3726
11.3908
11.3994
11.4056
11.4201
11.4483
11.4834
11.5122
11.5253
11.5249
11.5232
11.5359
11.5721
11.617
11.6483
11.6551
11.6432
11.6285
11.6307
11.6613
11.7089
11.7467
11.7596
11.7507
11.7378
11.7367
11.7595
11.7999
11.8318
11.8407
11.8309
11.817
11.8129
11.8273
11.8584
11.8871
11.8982
11.8936
11.8864
11.8868
11.8988
11.9151
11.9227
11.9186
11.9107
11.9085
11.9177
11.9352
11.9482
11.9481
11.9372
11.9253
1
1
1
1
1
1
1
1
1
1
1
1
1
1
1
1
1
1
1
1
1
1
1
1
1
1
1
1
1
1
1
1
1
1
1
1
1
1
1
1
1
1
1
1
1
1
1
1
1
1
1
1
1
1
1
1
1
1
1
1
1
1
1
1
1
1
1
1
1
1
1
1
1
1
1
1
1
1
1
1
1
1
1
1
1
1
1
1
1
1
1
1
1
1
1
1
1
1
1.16188
7.13288
10.3887
10.3883
10.4013
10.4232
10.4505
10.4832
10.5187
10.5534
10.5846
10.6109
10.6333
10.6551
10.6808
10.7123
10.7466
10.7779
10.8011
10.8168
10.8307
10.8507
10.8821
10.9203
10.9565
10.9862
11.0062
11.017
11.0277
11.0491
11.082
11.1194
11.1542
11.1816
11.1979
11.2058
11.213
11.2227
11.2426
11.2725
11.3061
11.3381
11.363
11.378
11.3863
11.3954
11.4145
11.4442
11.4763
11.5002
11.5098
11.5098
11.5127
11.5327
11.5703
11.6095
11.6335
11.6354
11.625
11.6161
11.6268
11.6619
11.7053
11.7347
11.7407
11.7315
11.7222
11.728
11.757
11.796
11.8219
11.825
11.8134
11.8009
11.8007
11.8201
11.853
11.8785
11.8855
11.8797
11.8728
11.8753
11.8893
11.905
11.9108
11.9054
11.8973
11.896
11.9068
11.9251
11.9375
11.9363
11.9243
11.913
1
1
1
1
1
1
1
1
1
1
1
1
1
1
1
1
1
1
1
1
1
1
1
1
1
1
1
1
1
1
1
1
1
1
1
1
1
1
1
1
1
1
1
1
1
1
1
1
1
1
1
1
1
1
1
1
1
1
1
1
1
1
1
1
1
1
1
1
1
1
1
1
1
1
1
1
1
1
1
1
1
1
1
1
1
1
1
1
1
1
1
1
1
1
1
1
1
1
1.0255
6.77894
10.3574
10.365
10.3833
10.4105
10.4413
10.4749
10.5092
10.5416
10.5708
10.5972
10.6226
10.6491
10.6786
10.7109
10.7417
10.7667
10.7853
10.8015
10.8213
10.8494
10.8859
10.9237
10.9557
10.9781
10.9907
10.998
11.0124
11.0425
11.0816
11.1205
11.1523
11.1727
11.1817
11.1857
11.1947
11.2119
11.2399
11.2726
11.3035
11.3297
11.3489
11.3616
11.3725
11.3882
11.413
11.4421
11.4677
11.4834
11.4893
11.4924
11.5045
11.5333
11.5698
11.6003
11.6149
11.6125
11.6056
11.6062
11.6268
11.6639
11.6995
11.7187
11.7181
11.7108
11.7083
11.7227
11.7564
11.7907
11.8087
11.8062
11.7941
11.7852
11.7904
11.8146
11.8467
11.8673
11.8703
11.8646
11.8594
11.8645
11.8799
11.8938
11.8971
11.8908
11.8831
11.8835
11.8958
11.914
11.9253
11.9231
11.9107
11.9007
1
1
1
1
1
1
1
1
1
1
1
1
1
1
1
1
1
1
1
1
1
1
1
1
1
1
1
1
1
1
1
1
1
1
1
1
1
1
1
1
1
1
1
1
1
1
1
1
1
1
1
1
1
1
1
1
1
1
1
1
1
1
1
1
1
1
1
1
1
1
1
1
1
1
1
1
1
1
1
1
1
1
1
1
1
1
1
1
1
1
1
1
1
1
1
1
1
1
1.00048
6.33339
10.3002
10.3455
10.3708
10.4019
10.4333
10.4656
10.4978
10.5288
10.5581
10.5862
10.6146
10.644
10.6744
10.7043
10.7308
10.7523
10.7709
10.7911
10.817
10.8501
10.8876
10.923
10.9501
10.966
10.9739
10.9818
11.0032
11.04
11.081
11.1178
11.1441
11.1571
11.1604
11.1651
11.1807
11.2077
11.2416
11.2738
11.2989
11.317
11.3299
11.3419
11.3592
11.3845
11.4144
11.441
11.4576
11.464
11.4659
11.4742
11.4985
11.5346
11.5689
11.5895
11.5939
11.5893
11.5862
11.5976
11.6282
11.6648
11.6906
11.6988
11.6945
11.6897
11.6954
11.7199
11.7558
11.7831
11.7919
11.7848
11.774
11.7705
11.782
11.8099
11.8388
11.8535
11.8532
11.8483
11.846
11.8544
11.8703
11.8814
11.8819
11.8748
11.8683
11.8709
11.8848
11.9021
11.9116
11.9086
11.8965
11.8885
1
1
1
1
1
1
1
1
1
1
1
1
1
1
1
1
1
1
1
1
1
1
1
1
1
1
1
1
1
1
1
1
1
1
1
1
1
1
1
1
1
1
1
1
1
1
1
1
1
1
1
1
1
1
1
1
1
1
1
1
1
1
1
1
1
1
1
1
1
1
1
1
1
1
1
1
1
1
1
1
1
1
1
1
1
1
1
1
1
1
1
1
1
1
1
1
1
1
1
5.83187
10.2449
10.3276
10.3596
10.3923
10.4239
10.4551
10.4858
10.5168
10.5475
10.5778
10.6081
10.6386
10.6678
10.6945
10.7179
10.7388
10.7604
10.7855
10.8155
10.8502
10.8858
10.9167
10.9374
10.9484
10.9562
10.9707
11.0002
11.0396
11.0786
11.1101
11.1289
11.1351
11.1362
11.147
11.173
11.2083
11.2445
11.2738
11.2917
11.3015
11.3086
11.3217
11.3468
11.3813
11.4149
11.4373
11.4449
11.4433
11.4431
11.458
11.4933
11.5342
11.5644
11.5762
11.5729
11.5667
11.5686
11.591
11.6285
11.662
11.6784
11.6773
11.6713
11.67
11.6846
11.7177
11.753
11.7726
11.7726
11.7626
11.7539
11.7565
11.7751
11.8049
11.8288
11.8369
11.8346
11.8311
11.8327
11.845
11.8601
11.8675
11.8651
11.8578
11.8531
11.8583
11.8735
11.8889
11.8963
11.8928
11.8817
11.8764
1
1
1
1
1
1
1
1
1
1
1
1
1
1
1
1
1
1
1
1
1
1
1
1
1
1
1
1
1
1
1
1
1
1
1
1
1
1
1
1
1
1
1
1
1
1
1
1
1
1
1
1
1
1
1
1
1
1
1
1
1
1
1
1
1
1
1
1
1
1
1
1
1
1
1
1
1
1
1
1
1
1
1
1
1
1
1
1
1
1
1
1
1
1
1
1
1
1
1
5.2976
10.1763
10.3135
10.3497
10.385
10.4158
10.4444
10.4737
10.5052
10.5376
10.5694
10.6003
10.6304
10.6583
10.6833
10.7061
10.7296
10.7561
10.7855
10.8171
10.8495
10.8796
10.9031
10.9178
10.928
10.9422
10.9665
11.0015
11.0402
11.0744
11.0984
11.1094
11.1099
11.1137
11.1352
11.17
11.2093
11.2448
11.2699
11.2815
11.2852
11.2894
11.3049
11.3365
11.3761
11.4103
11.4282
11.4289
11.4237
11.4249
11.447
11.4878
11.5292
11.5545
11.5595
11.5534
11.5474
11.5553
11.5857
11.6251
11.6532
11.6616
11.6563
11.6497
11.6528
11.6761
11.7142
11.7459
11.758
11.7518
11.7403
11.735
11.7437
11.7686
11.7982
11.8162
11.8183
11.8151
11.8137
11.8199
11.8356
11.8486
11.8517
11.8468
11.8398
11.8377
11.846
11.8616
11.8745
11.8794
11.8755
11.8664
11.8642
1
1
1
1
1
1
1
1
1
1
1
1
1
1
1
1
1
1
1
1
1
1
1
1
1
1
1
1
1
1
1
1
1
1
1
1
1
1
1
1
1
1
1
1
1
1
1
1
1
1
1
1
1
1
1
1
1
1
1
1
1
1
1
1
1
1
1
1
1
1
1
1
1
1
1
1
1
1
1
1
1
1
1
1
1
1
1
1
1
1
1
1
1
1
1
1
1
1
1
4.7441
10.0776
10.3028
10.3415
10.3784
10.4092
10.4376
10.4665
10.4981
10.531
10.5626
10.5922
10.6204
10.647
10.6715
10.696
10.7237
10.7547
10.7864
10.8166
10.8443
10.8676
10.8842
10.8964
10.9118
10.9359
10.968
11.0048
11.0396
11.065
11.0782
11.0828
11.0847
11.0996
11.1313
11.1684
11.2063
11.2387
11.2595
11.2673
11.2693
11.2752
11.2951
11.3291
11.3676
11.3979
11.4114
11.41
11.4061
11.4135
11.4416
11.4822
11.5188
11.5383
11.5398
11.5346
11.5324
11.5473
11.5812
11.6172
11.6385
11.6413
11.6354
11.6306
11.6393
11.6694
11.7085
11.7347
11.7397
11.7301
11.7189
11.7175
11.7321
11.7616
11.7887
11.8006
11.7987
11.7949
11.7964
11.808
11.8254
11.8356
11.8342
11.8271
11.8213
11.8223
11.8339
11.849
11.8586
11.8608
11.8569
11.8507
11.8518
1
1
1
1
1
1
1
1
1
1
1
1
1
1
1
1
1
1
1
1
1
1
1
1
1
1
1
1
1
1
1
1
1
1
1
1
1
1
1
1
1
1
1
1
1
1
1
1
1
1
1
1
1
1
1
1
1
1
1
1
1
1
1
1
1
1
1
1
1
1
1
1
1
1
1
1
1
1
1
1
1
1
1
1
1
1
1
1
1
1
1
1
1
1
1
1
1
1
1
4.18841
9.94007
10.2959
10.3347
10.3737
10.4041
10.4317
10.4604
10.4924
10.5254
10.5562
10.5841
10.6104
10.6365
10.6619
10.6889
10.72
10.753
10.7839
10.8108
10.8333
10.8511
10.8648
10.8802
10.9046
10.9365
10.9719
11.0053
11.0302
11.0438
11.05
11.0562
11.0698
11.0974
11.133
11.1677
11.1998
11.2256
11.2416
11.2486
11.2545
11.2675
11.2922
11.3239
11.3551
11.3775
11.387
11.3883
11.3921
11.4092
11.4399
11.4746
11.5023
11.5161
11.5181
11.5169
11.5224
11.5436
11.5756
11.6042
11.6186
11.6188
11.6147
11.6144
11.6296
11.663
11.6986
11.7188
11.7187
11.7081
11.6986
11.7014
11.7216
11.7531
11.7762
11.7821
11.7781
11.7747
11.7797
11.7965
11.814
11.8202
11.8149
11.806
11.8025
11.8073
11.8219
11.8355
11.841
11.8403
11.8371
11.8345
11.8394
1
1
1
1
1
1
1
1
1
1
1
1
1
1
1
1
1
1
1
1
1
1
1
1
1
1
1
1
1
1
1
1
1
1
1
1
1
1
1
1
1
1
1
1
1
1
1
1
1
1
1
1
1
1
1
1
1
1
1
1
1
1
1
1
1
1
1
1
1
1
1
1
1
1
1
1
1
1
1
1
1
1
1
1
1
1
1
1
1
1
1
1
1
1
1
1
1
1
1
3.64338
9.75209
10.2949
10.3312
10.3687
10.3973
10.4249
10.4545
10.487
10.5194
10.5491
10.5755
10.6004
10.6264
10.6534
10.6829
10.7156
10.7483
10.7769
10.8001
10.8189
10.8353
10.8515
10.8739
10.905
10.9392
10.971
10.9951
11.0081
11.0138
11.0214
11.0387
11.0665
11.1019
11.1382
11.1676
11.191
11.2071
11.2166
11.2263
11.2423
11.2653
11.2924
11.3183
11.3387
11.3513
11.3582
11.3662
11.3827
11.4091
11.4387
11.4644
11.4817
11.4903
11.4948
11.5013
11.5166
11.5413
11.5676
11.5867
11.5945
11.5948
11.5945
11.6008
11.6228
11.6558
11.6851
11.6988
11.6959
11.6863
11.6798
11.687
11.7114
11.7421
11.7605
11.7615
11.7565
11.7548
11.7638
11.7847
11.8008
11.8026
11.7937
11.784
11.7836
11.7929
11.8095
11.8207
11.8218
11.8179
11.8161
11.8177
11.8267
1
1
1
1
1
1
1
1
1
1
1
1
1
1
1
1
1
1
1
1
1
1
1
1
1
1
1
1
1
1
1
1
1
1
1
1
1
1
1
1
1
1
1
1
1
1
1
1
1
1
1
1
1
1
1
1
1
1
1
1
1
1
1
1
1
1
1
1
1
1
1
1
1
1
1
1
1
1
1
1
1
1
1
1
1
1
1
1
1
1
1
1
1
1
1
1
1
1
1
3.12096
9.50193
10.2927
10.327
10.3657
10.3927
10.4203
10.4494
10.4815
10.5134
10.5421
10.5678
10.5922
10.6183
10.6463
10.6771
10.7095
10.74
10.7657
10.7865
10.8047
10.8236
10.8453
10.8736
10.9065
10.937
10.9601
10.9732
10.9784
10.9844
11.0023
11.0332
11.0709
11.11
11.1442
11.1654
11.1764
11.1819
11.1878
11.2054
11.2334
11.2639
11.2907
11.3092
11.3188
11.3232
11.3296
11.3469
11.3759
11.4081
11.4343
11.4506
11.4588
11.464
11.4722
11.4882
11.5121
11.5371
11.5562
11.5661
11.5689
11.5704
11.5756
11.5904
11.6166
11.646
11.6679
11.6759
11.672
11.6647
11.6621
11.6738
11.7007
11.7283
11.7417
11.7395
11.7341
11.7353
11.7489
11.7717
11.7856
11.783
11.7709
11.7614
11.7647
11.779
11.7964
11.8043
11.801
11.7944
11.7941
11.8002
11.8135
1
1
1
1
1
1
1
1
1
1
1
1
1
1
1
1
1
1
1
1
1
1
1
1
1
1
1
1
1
1
1
1
1
1
1
1
1
1
1
1
1
1
1
1
1
1
1
1
1
1
1
1
1
1
1
1
1
1
1
1
1
1
1
1
1
1
1
1
1
1
1
1
1
1
1
1
1
1
1
1
1
1
1
1
1
1
1
1
1
1
1
1
1
1
1
1
1
1
1
2.6251
9.18193
10.3029
10.3326
10.3658
10.3898
10.417
10.4463
10.4775
10.5082
10.5354
10.5602
10.5849
10.612
10.6411
10.6718
10.7022
10.7294
10.7522
10.7721
10.792
10.8145
10.8412
10.8723
10.9032
10.9271
10.9416
10.9489
10.9542
10.9685
10.9968
11.0343
11.0753
11.1134
11.1395
11.1498
11.1527
11.1554
11.1659
11.1925
11.2271
11.2602
11.284
11.2941
11.2955
11.2963
11.3066
11.3335
11.3695
11.4025
11.4239
11.4329
11.4354
11.4396
11.4527
11.4771
11.5059
11.5288
11.5408
11.5435
11.5435
11.5471
11.5589
11.5812
11.6086
11.633
11.6477
11.6515
11.6479
11.6433
11.6452
11.6616
11.6889
11.7118
11.7202
11.7164
11.7116
11.7162
11.7343
11.7572
11.7676
11.7612
11.7472
11.739
11.746
11.7648
11.7822
11.7859
11.7784
11.7699
11.7714
11.7821
11.799
1
1
1
1
1
1
1
1
1
1
1
1
1
1
1
1
1
1
1
1
1
1
1
1
1
1
1
1
1
1
1
1
1
1
1
1
1
1
1
1
1
1
1
1
1
1
1
1
1
1
1
1
1
1
1
1
1
1
1
1
1
1
1
1
1
1
1
1
1
1
1
1
1
1
1
1
1
1
1
1
1
1
1
1
1
1
1
1
1
1
1
1
1
1
1
1
1
1
1
2.15979
8.77968
10.3235
10.3402
10.3692
10.3901
10.4161
10.4432
10.4716
10.5001
10.5261
10.5511
10.5769
10.6051
10.6353
10.6659
10.6941
10.7185
10.7394
10.7593
10.7812
10.8071
10.8365
10.867
10.8931
10.9106
10.9212
10.9296
10.942
10.9651
10.9984
11.0357
11.0728
11.1026
11.1181
11.1232
11.1284
11.1384
11.1579
11.1885
11.2225
11.2504
11.2657
11.2694
11.2692
11.2737
11.2926
11.3252
11.3611
11.3904
11.4068
11.4116
11.4127
11.4189
11.4374
11.4666
11.4958
11.515
11.5215
11.5203
11.5197
11.5265
11.5448
11.5714
11.5975
11.6164
11.6253
11.6262
11.6238
11.6222
11.6291
11.6494
11.6753
11.6927
11.6965
11.6923
11.6891
11.6975
11.7193
11.7407
11.747
11.7375
11.7228
11.717
11.7275
11.7496
11.7661
11.7658
11.7545
11.7449
11.7484
11.7632
11.7828
1
1
1
1
1
1
1
1
1
1
1
1
1
1
1
1
1
1
1
1
1
1
1
1
1
1
1
1
1
1
1
1
1
1
1
1
1
1
1
1
1
1
1
1
1
1
1
1
1
1
1
1
1
1
1
1
1
1
1
1
1
1
1
1
1
1
1
1
1
1
1
1
1
1
1
1
1
1
1
1
1
1
1
1
1
1
1
1
1
1
1
1
1
1
1
1
1
1
1
1.74399
8.31437
10.368
10.351
10.3682
10.3848
10.4103
10.4376
10.4659