/*--------------------------------*- C++ -*----------------------------------*\
  =========                 |
  \\      /  F ield         | OpenFOAM: The Open Source CFD Toolbox
   \\    /   O peration     | Website:  https://openfoam.org
    \\  /    A nd           | Version:  7
     \\/     M anipulation  |
\*---------------------------------------------------------------------------*/
FoamFile
{
    version     2.0;
    format      ascii;
    class       volScalarField;
    location    "3.7";
    object      rho;
}
// * * * * * * * * * * * * * * * * * * * * * * * * * * * * * * * * * * * * * //

dimensions      [1 -3 0 0 0 0 0];

internalField   nonuniform List<scalar> 
258048
(
1.40001
1.40001
1.40001
1.40001
1.40001
1.40001
1.40001
1.40001
1.40001
1.40001
1.40001
1.40001
1.40001
1.40001
1.40001
1.40001
1.40001
1.40001
1.40001
1.40001
1.40001
1.40001
1.40001
1.40001
1.40001
1.40001
1.40001
1.40001
1.40001
1.40001
1.40001
1.40001
1.40001
1.40001
1.40001
1.40001
1.40001
1.40001
1.40001
1.40001
1.40001
1.40001
1.40001
1.40001
1.40001
1.40001
1.40001
1.40001
1.40001
1.40001
1.40001
1.40001
1.40001
1.40001
1.40001
1.40001
1.40001
1.40001
1.40001
1.40001
1.40001
1.40001
1.40001
1.40001
1.40001
1.40001
1.40001
1.40001
1.40001
1.40001
1.40001
1.40001
1.40001
1.40001
1.40001
1.40001
1.40001
1.40001
1.40001
1.40001
1.40001
1.40001
1.40001
1.40001
1.40001
1.40001
1.40001
1.40001
1.40001
1.40001
1.40001
1.40001
1.40001
1.40001
1.40001
1.40001
1.40001
1.40001
2.94197
5.28208
5.40313
5.3959
5.41034
5.43825
5.46657
5.48979
5.50572
5.51089
5.50852
5.50556
5.5067
5.51603
5.53542
5.55913
5.57962
5.59309
5.59754
5.59563
5.59313
5.59621
5.60842
5.63042
5.65469
5.67418
5.68506
5.68396
5.67734
5.67345
5.67995
5.70068
5.72789
5.74936
5.75957
5.75436
5.74291
5.73647
5.74387
5.76679
5.79277
5.81234
5.81961
5.81517
5.80868
5.80807
5.81801
5.83594
5.85282
5.86152
5.85999
5.8551
5.85308
5.86027
5.87786
5.89756
5.911
5.91345
5.90898
5.90464
5.9056
5.91383
5.92673
5.93704
5.94047
5.93988
5.94018
5.94453
5.9547
5.967
5.97483
5.97573
5.97314
5.97108
5.97225
5.97659
5.98247
5.98706
5.98955
5.9914
5.99424
5.99869
6.00384
6.00727
6.00819
6.00821
6.00839
6.00888
6.00928
6.00922
6.00833
6.00723
6.00659
6.00661
1.40001
1.40001
1.40001
1.40001
1.40001
1.40001
1.40001
1.40001
1.40001
1.40001
1.40001
1.40001
1.40001
1.40001
1.40001
1.40001
1.40001
1.40001
1.40001
1.40001
1.40001
1.40001
1.40001
1.40001
1.40001
1.40001
1.40001
1.40001
1.40001
1.40001
1.40001
1.40001
1.40001
1.40001
1.40001
1.40001
1.40001
1.40001
1.40001
1.40001
1.40001
1.40001
1.40001
1.40001
1.40001
1.40001
1.40001
1.40001
1.40001
1.40001
1.40001
1.40001
1.40001
1.40001
1.40001
1.40001
1.40001
1.40001
1.40001
1.40001
1.40001
1.40001
1.40001
1.40001
1.40001
1.40001
1.40001
1.40001
1.40001
1.40001
1.40001
1.40001
1.40001
1.40001
1.40001
1.40001
1.40001
1.40001
1.40001
1.40001
1.40001
1.40001
1.40001
1.40001
1.40001
1.40001
1.40001
1.40001
1.40001
1.40001
1.40001
1.40001
1.40001
1.40001
1.40001
1.40001
1.40001
1.40001
2.93046
5.26818
5.40713
5.40648
5.41961
5.44155
5.46571
5.48603
5.49908
5.50481
5.50643
5.50751
5.51129
5.52058
5.53644
5.55756
5.57767
5.59151
5.59705
5.59653
5.59552
5.59973
5.61164
5.63113
5.65347
5.67207
5.68242
5.68221
5.67732
5.67525
5.68248
5.70184
5.72747
5.74837
5.75852
5.75425
5.744
5.73853
5.74546
5.7672
5.79258
5.81199
5.81967
5.81589
5.80997
5.80925
5.81842
5.83562
5.85235
5.86138
5.86044
5.85605
5.85419
5.861
5.87799
5.8974
5.91088
5.9137
5.90952
5.90531
5.90612
5.9139
5.9265
5.93692
5.9407
5.94036
5.94076
5.94497
5.95471
5.96663
5.97443
5.9757
5.97338
5.97145
5.97252
5.97654
5.98202
5.98651
5.98925
5.99143
5.99449
5.99892
6.00371
6.00679
6.00763
6.00782
6.00829
6.00891
6.00925
6.00891
6.00782
6.00677
6.00635
6.00654
1.40001
1.40001
1.40001
1.40001
1.40001
1.40001
1.40001
1.40001
1.40001
1.40001
1.40001
1.40001
1.40001
1.40001
1.40001
1.40001
1.40001
1.40001
1.40001
1.40001
1.40001
1.40001
1.40001
1.40001
1.40001
1.40001
1.40001
1.40001
1.40001
1.40001
1.40001
1.40001
1.40001
1.40001
1.40001
1.40001
1.40001
1.40001
1.40001
1.40001
1.40001
1.40001
1.40001
1.40001
1.40001
1.40001
1.40001
1.40001
1.40001
1.40001
1.40001
1.40001
1.40001
1.40001
1.40001
1.40001
1.40001
1.40001
1.40001
1.40001
1.40001
1.40001
1.40001
1.40001
1.40001
1.40001
1.40001
1.40001
1.40001
1.40001
1.40001
1.40001
1.40001
1.40001
1.40001
1.40001
1.40001
1.40001
1.40001
1.40001
1.40001
1.40001
1.40001
1.40001
1.40001
1.40001
1.40001
1.40001
1.40001
1.40001
1.40001
1.40001
1.40001
1.40001
1.40001
1.40001
1.40001
1.40001
2.91101
5.25137
5.40905
5.41703
5.43196
5.44831
5.46577
5.48033
5.48998
5.49574
5.50054
5.50677
5.51538
5.52636
5.53984
5.55683
5.5742
5.58704
5.59351
5.59509
5.597
5.60368
5.61587
5.63332
5.6531
5.6694
5.67779
5.67763
5.67473
5.67577
5.68523
5.7039
5.72711
5.74594
5.75469
5.75115
5.74331
5.74038
5.74775
5.76777
5.79122
5.80944
5.81718
5.8147
5.81035
5.81032
5.81878
5.83443
5.85012
5.85903
5.859
5.85584
5.85482
5.86148
5.8775
5.896
5.90909
5.91231
5.90886
5.90521
5.906
5.91326
5.92513
5.93535
5.93954
5.9397
5.94051
5.94484
5.95422
5.96544
5.97298
5.97465
5.97281
5.9713
5.9725
5.97629
5.98126
5.98542
5.9883
5.99095
5.9945
5.9991
6.00356
6.00613
6.0067
6.00703
6.0079
6.00878
6.00917
6.00853
6.00712
6.00611
6.00599
6.00647
1.40001
1.40001
1.40001
1.40001
1.40001
1.40001
1.40001
1.40001
1.40001
1.40001
1.40001
1.40001
1.40001
1.40001
1.40001
1.40001
1.40001
1.40001
1.40001
1.40001
1.40001
1.40001
1.40001
1.40001
1.40001
1.40001
1.40001
1.40001
1.40001
1.40001
1.40001
1.40001
1.40001
1.40001
1.40001
1.40001
1.40001
1.40001
1.40001
1.40001
1.40001
1.40001
1.40001
1.40001
1.40001
1.40001
1.40001
1.40001
1.40001
1.40001
1.40001
1.40001
1.40001
1.40001
1.40001
1.40001
1.40001
1.40001
1.40001
1.40001
1.40001
1.40001
1.40001
1.40001
1.40001
1.40001
1.40001
1.40001
1.40001
1.40001
1.40001
1.40001
1.40001
1.40001
1.40001
1.40001
1.40001
1.40001
1.40001
1.40001
1.40001
1.40001
1.40001
1.40001
1.40001
1.40001
1.40001
1.40001
1.40001
1.40001
1.40001
1.40001
1.40001
1.40001
1.40001
1.40001
1.40001
1.40001
2.8867
5.22892
5.41237
5.42409
5.44072
5.45397
5.46511
5.47427
5.48104
5.48668
5.49575
5.508
5.5206
5.53216
5.54331
5.55632
5.57076
5.58281
5.59034
5.59462
5.60009
5.60913
5.62089
5.63571
5.65205
5.66553
5.67252
5.67352
5.67348
5.67797
5.68923
5.70621
5.72609
5.74254
5.75046
5.7484
5.74358
5.74325
5.75097
5.76886
5.78984
5.80668
5.81448
5.81379
5.81121
5.8119
5.81964
5.83365
5.84806
5.85663
5.85776
5.85599
5.85593
5.86259
5.87755
5.89494
5.90747
5.91102
5.90846
5.90561
5.90656
5.91336
5.92436
5.93403
5.93848
5.93926
5.94054
5.94508
5.95411
5.96458
5.97174
5.97366
5.97228
5.97125
5.97256
5.9761
5.98062
5.98446
5.98736
5.99037
5.99438
5.99907
6.00317
6.00532
6.00567
6.00611
6.0073
6.00843
6.00882
6.00792
6.00625
6.00524
6.0054
6.00617
1.40001
1.40001
1.40001
1.40001
1.40001
1.40001
1.40001
1.40001
1.40001
1.40001
1.40001
1.40001
1.40001
1.40001
1.40001
1.40001
1.40001
1.40001
1.40001
1.40001
1.40001
1.40001
1.40001
1.40001
1.40001
1.40001
1.40001
1.40001
1.40001
1.40001
1.40001
1.40001
1.40001
1.40001
1.40001
1.40001
1.40001
1.40001
1.40001
1.40001
1.40001
1.40001
1.40001
1.40001
1.40001
1.40001
1.40001
1.40001
1.40001
1.40001
1.40001
1.40001
1.40001
1.40001
1.40001
1.40001
1.40001
1.40001
1.40001
1.40001
1.40001
1.40001
1.40001
1.40001
1.40001
1.40001
1.40001
1.40001
1.40001
1.40001
1.40001
1.40001
1.40001
1.40001
1.40001
1.40001
1.40001
1.40001
1.40001
1.40001
1.40001
1.40001
1.40001
1.40001
1.40001
1.40001
1.40001
1.40001
1.40001
1.40001
1.40001
1.40001
1.40001
1.40001
1.40001
1.40001
1.40001
1.40001
2.85622
5.20432
5.41714
5.42741
5.44386
5.45557
5.46381
5.46955
5.4752
5.48116
5.49384
5.51016
5.52535
5.53752
5.54698
5.55609
5.56695
5.57789
5.58678
5.59441
5.60387
5.61478
5.62579
5.63783
5.6505
5.66082
5.66681
5.66955
5.67349
5.68178
5.6938
5.70844
5.72442
5.73784
5.74484
5.74539
5.74407
5.74651
5.75503
5.7705
5.78827
5.8029
5.8107
5.81238
5.8119
5.81379
5.82116
5.83317
5.84552
5.85359
5.85609
5.85579
5.85703
5.86415
5.87787
5.8936
5.90516
5.90898
5.9075
5.90578
5.90716
5.91358
5.92354
5.93234
5.93694
5.93843
5.94028
5.9452
5.95393
5.9636
5.97028
5.97233
5.97139
5.9708
5.97223
5.97564
5.97987
5.98349
5.98639
5.98962
5.99389
5.99864
6.00249
6.00438
6.00468
6.00516
6.00648
6.00777
6.00815
6.0071
6.0053
6.00427
6.00463
6.00559
1.40001
1.40001
1.40001
1.40001
1.40001
1.40001
1.40001
1.40001
1.40001
1.40001
1.40001
1.40001
1.40001
1.40001
1.40001
1.40001
1.40001
1.40001
1.40001
1.40001
1.40001
1.40001
1.40001
1.40001
1.40001
1.40001
1.40001
1.40001
1.40001
1.40001
1.40001
1.40001
1.40001
1.40001
1.40001
1.40001
1.40001
1.40001
1.40001
1.40001
1.40001
1.40001
1.40001
1.40001
1.40001
1.40001
1.40001
1.40001
1.40001
1.40001
1.40001
1.40001
1.40001
1.40001
1.40001
1.40001
1.40001
1.40001
1.40001
1.40001
1.40001
1.40001
1.40001
1.40001
1.40001
1.40001
1.40001
1.40001
1.40001
1.40001
1.40001
1.40001
1.40001
1.40001
1.40001
1.40001
1.40001
1.40001
1.40001
1.40001
1.40001
1.40001
1.40001
1.40001
1.40001
1.40001
1.40001
1.40001
1.40001
1.40001
1.40001
1.40001
1.40001
1.40001
1.40001
1.40001
1.40001
1.40001
2.81585
5.18388
5.41907
5.42834
5.44418
5.45392
5.46128
5.46611
5.47175
5.47936
5.49457
5.51338
5.53005
5.54188
5.54934
5.55508
5.56283
5.57317
5.58396
5.59545
5.60829
5.62
5.62955
5.6385
5.64742
5.65523
5.66125
5.66702
5.67545
5.68647
5.69795
5.70957
5.72144
5.73205
5.73925
5.7426
5.74529
5.75056
5.75917
5.77183
5.78619
5.79857
5.8066
5.81055
5.81266
5.81609
5.82299
5.8328
5.84289
5.85022
5.85384
5.85541
5.85836
5.86598
5.87843
5.89222
5.90258
5.90657
5.90625
5.90576
5.90767
5.91389
5.92287
5.93075
5.9352
5.93724
5.93979
5.94515
5.95361
5.96257
5.9688
5.97092
5.97037
5.97006
5.97153
5.9749
5.97903
5.98262
5.98559
5.98886
5.99307
5.99771
6.00149
6.00337
6.00373
6.00423
6.0055
6.00674
6.00708
6.00605
6.00429
6.00329
6.00368
6.00463
1.40001
1.40001
1.40001
1.40001
1.40001
1.40001
1.40001
1.40001
1.40001
1.40001
1.40001
1.40001
1.40001
1.40001
1.40001
1.40001
1.40001
1.40001
1.40001
1.40001
1.40001
1.40001
1.40001
1.40001
1.40001
1.40001
1.40001
1.40001
1.40001
1.40001
1.40001
1.40001
1.40001
1.40001
1.40001
1.40001
1.40001
1.40001
1.40001
1.40001
1.40001
1.40001
1.40001
1.40001
1.40001
1.40001
1.40001
1.40001
1.40001
1.40001
1.40001
1.40001
1.40001
1.40001
1.40001
1.40001
1.40001
1.40001
1.40001
1.40001
1.40001
1.40001
1.40001
1.40001
1.40001
1.40001
1.40001
1.40001
1.40001
1.40001
1.40001
1.40001
1.40001
1.40001
1.40001
1.40001
1.40001
1.40001
1.40001
1.40001
1.40001
1.40001
1.40001
1.40001
1.40001
1.40001
1.40001
1.40001
1.40001
1.40001
1.40001
1.40001
1.40001
1.40001
1.40001
1.40001
1.40001
1.40001
2.76067
5.17009
5.41619
5.42641
5.44295
5.45162
5.4587
5.46364
5.47006
5.48003
5.49702
5.51652
5.53311
5.54388
5.54933
5.55249
5.55846
5.56926
5.58256
5.59773
5.61264
5.62399
5.63144
5.63719
5.64273
5.64915
5.65656
5.66634
5.67888
5.69113
5.70116
5.70972
5.71785
5.72623
5.73406
5.74042
5.74708
5.75452
5.7626
5.77251
5.78359
5.79403
5.80244
5.80868
5.81349
5.81844
5.82471
5.83227
5.8401
5.84663
5.8512
5.85474
5.85956
5.86774
5.87898
5.89074
5.89969
5.90388
5.90475
5.90538
5.90805
5.9141
5.92211
5.92908
5.93341
5.93604
5.93926
5.94488
5.95294
5.96124
5.96713
5.96941
5.96927
5.96911
5.97051
5.97377
5.97792
5.98171
5.98487
5.98808
5.99199
5.99634
6.0001
6.00221
6.00278
6.00327
6.00438
6.0054
6.00566
6.00478
6.00323
6.00229
6.00257
6.00331
1.40001
1.40001
1.40001
1.40001
1.40001
1.40001
1.40001
1.40001
1.40001
1.40001
1.40001
1.40001
1.40001
1.40001
1.40001
1.40001
1.40001
1.40001
1.40001
1.40001
1.40001
1.40001
1.40001
1.40001
1.40001
1.40001
1.40001
1.40001
1.40001
1.40001
1.40001
1.40001
1.40001
1.40001
1.40001
1.40001
1.40001
1.40001
1.40001
1.40001
1.40001
1.40001
1.40001
1.40001
1.40001
1.40001
1.40001
1.40001
1.40001
1.40001
1.40001
1.40001
1.40001
1.40001
1.40001
1.40001
1.40001
1.40001
1.40001
1.40001
1.40001
1.40001
1.40001
1.40001
1.40001
1.40001
1.40001
1.40001
1.40001
1.40001
1.40001
1.40001
1.40001
1.40001
1.40001
1.40001
1.40001
1.40001
1.40001
1.40001
1.40001
1.40001
1.40001
1.40001
1.40001
1.40001
1.40001
1.40001
1.40001
1.40001
1.40001
1.40001
1.40001
1.40001
1.40001
1.40001
1.40001
1.40001
2.69273
5.16345
5.4106
5.42314
5.43986
5.44849
5.45613
5.4621
5.46987
5.48218
5.49989
5.51871
5.53403
5.54329
5.54713
5.54918
5.55524
5.56736
5.58318
5.6008
5.61588
5.62589
5.63116
5.63391
5.63726
5.64367
5.65372
5.6675
5.68264
5.69479
5.70278
5.70851
5.71395
5.72103
5.72987
5.73922
5.74901
5.75761
5.76466
5.77209
5.78038
5.78935
5.79852
5.80721
5.8146
5.82064
5.82588
5.83126
5.83707
5.84299
5.84858
5.85414
5.86072
5.86921
5.87919
5.88907
5.89673
5.9011
5.90314
5.90494
5.90827
5.91395
5.92089
5.9271
5.9316
5.93505
5.93896
5.94453
5.95182
5.95934
5.96504
5.96778
5.9682
5.96816
5.96934
5.97228
5.97641
5.98058
5.98414
5.98736
5.99086
5.99473
5.99835
6.00077
6.00172
6.00223
6.00307
6.00384
6.00399
6.00332
6.00207
6.00118
6.00126
6.00168
1.40001
1.40001
1.40001
1.40001
1.40001
1.40001
1.40001
1.40001
1.40001
1.40001
1.40001
1.40001
1.40001
1.40001
1.40001
1.40001
1.40001
1.40001
1.40001
1.40001
1.40001
1.40001
1.40001
1.40001
1.40001
1.40001
1.40001
1.40001
1.40001
1.40001
1.40001
1.40001
1.40001
1.40001
1.40001
1.40001
1.40001
1.40001
1.40001
1.40001
1.40001
1.40001
1.40001
1.40001
1.40001
1.40001
1.40001
1.40001
1.40001
1.40001
1.40001
1.40001
1.40001
1.40001
1.40001
1.40001
1.40001
1.40001
1.40001
1.40001
1.40001
1.40001
1.40001
1.40001
1.40001
1.40001
1.40001
1.40001
1.40001
1.40001
1.40001
1.40001
1.40001
1.40001
1.40001
1.40001
1.40001
1.40001
1.40001
1.40001
1.40001
1.40001
1.40001
1.40001
1.40001
1.40001
1.40001
1.40001
1.40001
1.40001
1.40001
1.40001
1.40001
1.40001
1.40001
1.40001
1.40001
1.40001
2.619
5.15389
5.40568
5.41968
5.43589
5.44525
5.45408
5.46151
5.47084
5.48482
5.50247
5.51999
5.53344
5.54095
5.54412
5.54693
5.55429
5.56769
5.58498
5.60282
5.61716
5.62571
5.62907
5.63
5.63274
5.64023
5.65293
5.66934
5.6851
5.69657
5.70299
5.70669
5.71069
5.71734
5.72726
5.73897
5.75055
5.75936
5.76535
5.77075
5.77696
5.78513
5.79547
5.80646
5.81573
5.82203
5.82609
5.82955
5.83385
5.83955
5.84637
5.85386
5.86176
5.87004
5.87869
5.88691
5.89371
5.89853
5.9018
5.90469
5.90829
5.91316
5.91888
5.92457
5.92971
5.93438
5.93903
5.94423
5.9503
5.95673
5.96233
5.96591
5.96721
5.96741
5.96823
5.97053
5.97442
5.97902
5.98321
5.98667
5.98981
5.99305
5.9963
5.99895
6.00037
6.00094
6.00158
6.00213
6.00215
6.00167
6.00074
5.99986
5.99973
5.99981
1.40001
1.40001
1.40001
1.40001
1.40001
1.40001
1.40001
1.40001
1.40001
1.40001
1.40001
1.40001
1.40001
1.40001
1.40001
1.40001
1.40001
1.40001
1.40001
1.40001
1.40001
1.40001
1.40001
1.40001
1.40001
1.40001
1.40001
1.40001
1.40001
1.40001
1.40001
1.40001
1.40001
1.40001
1.40001
1.40001
1.40001
1.40001
1.40001
1.40001
1.40001
1.40001
1.40001
1.40001
1.40001
1.40001
1.40001
1.40001
1.40001
1.40001
1.40001
1.40001
1.40001
1.40001
1.40001
1.40001
1.40001
1.40001
1.40001
1.40001
1.40001
1.40001
1.40001
1.40001
1.40001
1.40001
1.40001
1.40001
1.40001
1.40001
1.40001
1.40001
1.40001
1.40001
1.40001
1.40001
1.40001
1.40001
1.40001
1.40001
1.40001
1.40001
1.40001
1.40001
1.40001
1.40001
1.40001
1.40001
1.40001
1.40001
1.40001
1.40001
1.40001
1.40001
1.40001
1.40001
1.40001
1.40001
2.54086
5.13629
5.40456
5.41673
5.43248
5.4427
5.45283
5.4618
5.47256
5.48707
5.50368
5.5195
5.53127
5.5383
5.54249
5.54696
5.55549
5.56925
5.58609
5.6028
5.61592
5.62339
5.62606
5.62722
5.63071
5.63936
5.65344
5.67025
5.68551
5.69628
5.70193
5.70483
5.70853
5.71544
5.72613
5.73893
5.75103
5.75966
5.76482
5.76878
5.77379
5.78194
5.79357
5.8061
5.81625
5.82229
5.82514
5.82711
5.8306
5.83672
5.84509
5.85411
5.86252
5.87008
5.8772
5.88408
5.8906
5.89635
5.90108
5.90482
5.90815
5.91166
5.91599
5.92144
5.92775
5.93405
5.93947
5.94402
5.94847
5.95355
5.95907
5.96379
5.96631
5.96687
5.96719
5.96865
5.97201
5.97695
5.98199
5.98597
5.98888
5.99141
5.99406
5.99672
5.99855
5.99938
5.99993
6.00032
6.00024
5.99983
5.99913
5.99832
5.99806
5.99781
1.40001
1.40001
1.40001
1.40001
1.40001
1.40001
1.40001
1.40001
1.40001
1.40001
1.40001
1.40001
1.40001
1.40001
1.40001
1.40001
1.40001
1.40001
1.40001
1.40001
1.40001
1.40001
1.40001
1.40001
1.40001
1.40001
1.40001
1.40001
1.40001
1.40001
1.40001
1.40001
1.40001
1.40001
1.40001
1.40001
1.40001
1.40001
1.40001
1.40001
1.40001
1.40001
1.40001
1.40001
1.40001
1.40001
1.40001
1.40001
1.40001
1.40001
1.40001
1.40001
1.40001
1.40001
1.40001
1.40001
1.40001
1.40001
1.40001
1.40001
1.40001
1.40001
1.40001
1.40001
1.40001
1.40001
1.40001
1.40001
1.40001
1.40001
1.40001
1.40001
1.40001
1.40001
1.40001
1.40001
1.40001
1.40001
1.40001
1.40001
1.40001
1.40001
1.40001
1.40001
1.40001
1.40001
1.40001
1.40001
1.40001
1.40001
1.40001
1.40001
1.40001
1.40001
1.40001
1.40001
1.40001
1.40001
2.4574
5.10851
5.40688
5.41548
5.43045
5.44127
5.4523
5.46242
5.47398
5.48838
5.50384
5.51791
5.52871
5.53643
5.54221
5.54833
5.55748
5.57053
5.58595
5.60107
5.61295
5.62014
5.6236
5.62617
5.63103
5.64046
5.6545
5.67026
5.68441
5.69454
5.70014
5.70346
5.70775
5.7152
5.72617
5.73892
5.75063
5.75876
5.76312
5.76644
5.77127
5.78014
5.7928
5.80585
5.81586
5.82116
5.82277
5.82395
5.82752
5.83485
5.8448
5.85473
5.86286
5.86921
5.87468
5.88058
5.8874
5.8946
5.90088
5.90513
5.90767
5.90952
5.91242
5.91787
5.92573
5.93383
5.9399
5.9436
5.94631
5.94995
5.95539
5.96141
5.96533
5.96614
5.96595
5.96663
5.96934
5.97446
5.9804
5.98512
5.98797
5.98982
5.99177
5.99422
5.9964
5.99759
5.99815
5.99843
5.99828
5.99779
5.99722
5.99656
5.99623
5.99568
1.40001
1.40001
1.40001
1.40001
1.40001
1.40001
1.40001
1.40001
1.40001
1.40001
1.40001
1.40001
1.40001
1.40001
1.40001
1.40001
1.40001
1.40001
1.40001
1.40001
1.40001
1.40001
1.40001
1.40001
1.40001
1.40001
1.40001
1.40001
1.40001
1.40001
1.40001
1.40001
1.40001
1.40001
1.40001
1.40001
1.40001
1.40001
1.40001
1.40001
1.40001
1.40001
1.40001
1.40001
1.40001
1.40001
1.40001
1.40001
1.40001
1.40001
1.40001
1.40001
1.40001
1.40001
1.40001
1.40001
1.40001
1.40001
1.40001
1.40001
1.40001
1.40001
1.40001
1.40001
1.40001
1.40001
1.40001
1.40001
1.40001
1.40001
1.40001
1.40001
1.40001
1.40001
1.40001
1.40001
1.40001
1.40001
1.40001
1.40001
1.40001
1.40001
1.40001
1.40001
1.40001
1.40001
1.40001
1.40001
1.40001
1.40001
1.40001
1.40001
1.40001
1.40001
1.40001
1.40001
1.40001
1.40001
2.36597
5.06866
5.40865
5.41564
5.43028
5.44135
5.45249
5.46288
5.47461
5.48861
5.50291
5.5159
5.52705
5.53621
5.54345
5.55016
5.55863
5.57029
5.58408
5.59786
5.60962
5.61778
5.62263
5.62642
5.63213
5.64175
5.65517
5.66968
5.68241
5.69187
5.698
5.70234
5.70762
5.7157
5.72655
5.73871
5.74955
5.7568
5.76059
5.76393
5.76937
5.77929
5.79261
5.80558
5.8148
5.81883
5.81945
5.8205
5.82502
5.83404
5.84525
5.8554
5.8627
5.86738
5.87135
5.87668
5.88434
5.89332
5.90094
5.90523
5.90655
5.90684
5.90855
5.91426
5.92381
5.93359
5.94005
5.94275
5.94389
5.94632
5.95177
5.95901
5.96408
5.96513
5.96449
5.96445
5.96662
5.97183
5.97854
5.98399
5.98685
5.98809
5.98937
5.99149
5.99392
5.99549
5.99608
5.99627
5.99604
5.99545
5.99502
5.99456
5.99417
5.99333
1.40001
1.40001
1.40001
1.40001
1.40001
1.40001
1.40001
1.40001
1.40001
1.40001
1.40001
1.40001
1.40001
1.40001
1.40001
1.40001
1.40001
1.40001
1.40001
1.40001
1.40001
1.40001
1.40001
1.40001
1.40001
1.40001
1.40001
1.40001
1.40001
1.40001
1.40001
1.40001
1.40001
1.40001
1.40001
1.40001
1.40001
1.40001
1.40001
1.40001
1.40001
1.40001
1.40001
1.40001
1.40001
1.40001
1.40001
1.40001
1.40001
1.40001
1.40001
1.40001
1.40001
1.40001
1.40001
1.40001
1.40001
1.40001
1.40001
1.40001
1.40001
1.40001
1.40001
1.40001
1.40001
1.40001
1.40001
1.40001
1.40001
1.40001
1.40001
1.40001
1.40001
1.40001
1.40001
1.40001
1.40001
1.40001
1.40001
1.40001
1.40001
1.40001
1.40001
1.40001
1.40001
1.40001
1.40001
1.40001
1.40001
1.40001
1.40001
1.40001
1.40001
1.40001
1.40001
1.40001
1.40001
1.40001
2.26987
5.01805
5.40981
5.41624
5.43093
5.44187
5.4525
5.4627
5.47449
5.48811
5.5017
5.51472
5.52691
5.5372
5.54477
5.55093
5.55826
5.56856
5.58121
5.59526
5.60795
5.61694
5.62231
5.62653
5.63244
5.64186
5.6548
5.66854
5.68049
5.68961
5.69623
5.70145
5.70757
5.71619
5.72686
5.7382
5.74786
5.75412
5.7576
5.76134
5.76778
5.77873
5.79237
5.8048
5.81284
5.81566
5.81577
5.81729
5.82326
5.83383
5.84577
5.8556
5.86164
5.86477
5.86769
5.87301
5.8819
5.89247
5.9008
5.90442
5.90439
5.90371
5.905
5.91141
5.92243
5.93319
5.93939
5.94096
5.94098
5.94279
5.9486
5.95678
5.96247
5.96352
5.96248
5.96196
5.96393
5.96933
5.97663
5.98257
5.98531
5.98602
5.98683
5.98875
5.9914
5.99323
5.99377
5.99381
5.9935
5.99296
5.99271
5.99244
5.99194
5.99076
1.40001
1.40001
1.40001
1.40001
1.40001
1.40001
1.40001
1.40001
1.40001
1.40001
1.40001
1.40001
1.40001
1.40001
1.40001
1.40001
1.40001
1.40001
1.40001
1.40001
1.40001
1.40001
1.40001
1.40001
1.40001
1.40001
1.40001
1.40001
1.40001
1.40001
1.40001
1.40001
1.40001
1.40001
1.40001
1.40001
1.40001
1.40001
1.40001
1.40001
1.40001
1.40001
1.40001
1.40001
1.40001
1.40001
1.40001
1.40001
1.40001
1.40001
1.40001
1.40001
1.40001
1.40001
1.40001
1.40001
1.40001
1.40001
1.40001
1.40001
1.40001
1.40001
1.40001
1.40001
1.40001
1.40001
1.40001
1.40001
1.40001
1.40001
1.40001
1.40001
1.40001
1.40001
1.40001
1.40001
1.40001
1.40001
1.40001
1.40001
1.40001
1.40001
1.40001
1.40001
1.40001
1.40001
1.40001
1.40001
1.40001
1.40001
1.40001
1.40001
1.40001
1.40001
1.40001
1.40001
1.40001
1.40001
2.17055
4.95766
5.41161
5.41725
5.43174
5.44218
5.45218
5.46206
5.47379
5.48743
5.50124
5.51494
5.52794
5.53815
5.54474
5.5497
5.55594
5.56568
5.579
5.59453
5.60834
5.6173
5.62186
5.62528
5.6309
5.64044
5.65371
5.66765
5.67936
5.6881
5.69474
5.70039
5.70704
5.71613
5.72676
5.7374
5.74597
5.75131
5.75453
5.75864
5.76602
5.77778
5.79151
5.8033
5.81023
5.81223
5.81238
5.81478
5.82219
5.83376
5.84579
5.85483
5.85946
5.86145
5.864
5.87007
5.88045
5.89187
5.89981
5.90212
5.90112
5.90003
5.90185
5.90982
5.92187
5.93244
5.93743
5.93787
5.93748
5.93954
5.94619
5.95494
5.96053
5.96117
5.95982
5.95921
5.96137
5.96718
5.97486
5.98082
5.98317
5.98341
5.98404
5.98605
5.98892
5.99078
5.99107
5.99088
5.99062
5.99032
5.99038
5.99025
5.9895
5.98783
1.40001
1.40001
1.40001
1.40001
1.40001
1.40001
1.40001
1.40001
1.40001
1.40001
1.40001
1.40001
1.40001
1.40001
1.40001
1.40001
1.40001
1.40001
1.40001
1.40001
1.40001
1.40001
1.40001
1.40001
1.40001
1.40001
1.40001
1.40001
1.40001
1.40001
1.40001
1.40001
1.40001
1.40001
1.40001
1.40001
1.40001
1.40001
1.40001
1.40001
1.40001
1.40001
1.40001
1.40001
1.40001
1.40001
1.40001
1.40001
1.40001
1.40001
1.40001
1.40001
1.40001
1.40001
1.40001
1.40001
1.40001
1.40001
1.40001
1.40001
1.40001
1.40001
1.40001
1.40001
1.40001
1.40001
1.40001
1.40001
1.40001
1.40001
1.40001
1.40001
1.40001
1.40001
1.40001
1.40001
1.40001
1.40001
1.40001
1.40001
1.40001
1.40001
1.40001
1.40001
1.40001
1.40001
1.40001
1.40001
1.40001
1.40001
1.40001
1.40001
1.40001
1.40001
1.40001
1.40001
1.40001
1.40001
2.06813
4.88945
5.41386
5.41936
5.43292
5.44229
5.45115
5.46066
5.47277
5.48697
5.50157
5.51609
5.52901
5.53801
5.54287
5.54626
5.55224
5.56317
5.5786
5.59573
5.60979
5.61773
5.62064
5.62267
5.62795
5.63824
5.65276
5.66737
5.67889
5.68697
5.69324
5.69897
5.70598
5.71567
5.72646
5.73664
5.74436
5.74889
5.75179
5.75603
5.76401
5.77622
5.78985
5.80107
5.80731
5.80906
5.80976
5.8133
5.82184
5.83372
5.84515
5.85281
5.85613
5.85756
5.86064
5.86841
5.88019
5.89141
5.8977
5.89812
5.89652
5.89588
5.89958
5.90978
5.92221
5.93113
5.93402
5.93358
5.93336
5.93666
5.9447
5.95355
5.95827
5.95796
5.95633
5.95603
5.95886
5.96542
5.97326
5.97863
5.98023
5.98018
5.98098
5.98342
5.98649
5.98814
5.98797
5.98749
5.98741
5.98764
5.98815
5.98806
5.98683
5.98453
1.40001
1.40001
1.40001
1.40001
1.40001
1.40001
1.40001
1.40001
1.40001
1.40001
1.40001
1.40001
1.40001
1.40001
1.40001
1.40001
1.40001
1.40001
1.40001
1.40001
1.40001
1.40001
1.40001
1.40001
1.40001
1.40001
1.40001
1.40001
1.40001
1.40001
1.40001
1.40001
1.40001
1.40001
1.40001
1.40001
1.40001
1.40001
1.40001
1.40001
1.40001
1.40001
1.40001
1.40001
1.40001
1.40001
1.40001
1.40001
1.40001
1.40001
1.40001
1.40001
1.40001
1.40001
1.40001
1.40001
1.40001
1.40001
1.40001
1.40001
1.40001
1.40001
1.40001
1.40001
1.40001
1.40001
1.40001
1.40001
1.40001
1.40001
1.40001
1.40001
1.40001
1.40001
1.40001
1.40001
1.40001
1.40001
1.40001
1.40001
1.40001
1.40001
1.40001
1.40001
1.40001
1.40001
1.40001
1.40001
1.40001
1.40001
1.40001
1.40001
1.40001
1.40001
1.40001
1.40001
1.40001
1.40001
1.96248
4.81462
5.41597
5.42085
5.43262
5.44109
5.44928
5.4592
5.47222
5.48708
5.50261
5.51724
5.52906
5.53604
5.53896
5.54165
5.54869
5.56192
5.57974
5.59761
5.61058
5.6166
5.61765
5.61874
5.62442
5.6363
5.65209
5.66706
5.67815
5.6854
5.69111
5.6968
5.70427
5.71475
5.72588
5.73576
5.74281
5.74663
5.74919
5.7534
5.76165
5.77401
5.78742
5.79815
5.80403
5.80596
5.80751
5.81228
5.8217
5.8335
5.84379
5.84974
5.85178
5.85311
5.85763
5.86783
5.88078
5.89077
5.89444
5.8929
5.89071
5.89142
5.8984
5.91102
5.923
5.92915
5.92942
5.92823
5.92874
5.93421
5.94401
5.95245
5.95555
5.95403
5.95206
5.95239
5.95646
5.96407
5.97181
5.97605
5.97661
5.97641
5.97769
5.98091
5.98413
5.98531
5.98452
5.98369
5.98391
5.98493
5.98598
5.98578
5.98385
5.9808
1.40001
1.40001
1.40001
1.40001
1.40001
1.40001
1.40001
1.40001
1.40001
1.40001
1.40001
1.40001
1.40001
1.40001
1.40001
1.40001
1.40001
1.40001
1.40001
1.40001
1.40001
1.40001
1.40001
1.40001
1.40001
1.40001
1.40001
1.40001
1.40001
1.40001
1.40001
1.40001
1.40001
1.40001
1.40001
1.40001
1.40001
1.40001
1.40001
1.40001
1.40001
1.40001
1.40001
1.40001
1.40001
1.40001
1.40001
1.40001
1.40001
1.40001
1.40001
1.40001
1.40001
1.40001
1.40001
1.40001
1.40001
1.40001
1.40001
1.40001
1.40001
1.40001
1.40001
1.40001
1.40001
1.40001
1.40001
1.40001
1.40001
1.40001
1.40001
1.40001
1.40001
1.40001
1.40001
1.40001
1.40001
1.40001
1.40001
1.40001
1.40001
1.40001
1.40001
1.40001
1.40001
1.40001
1.40001
1.40001
1.40001
1.40001
1.40001
1.40001
1.40001
1.40001
1.40001
1.40001
1.40001
1.40001
1.8569
4.72788
5.4159
5.42216
5.43158
5.43906
5.44716
5.45785
5.47158
5.48716
5.50321
5.51766
5.5281
5.5331
5.53468
5.53777
5.54668
5.56218
5.5814
5.59902
5.61008
5.61348
5.61311
5.61465
5.62217
5.63576
5.65202
5.66647
5.67643
5.68271
5.68807
5.69412
5.70245
5.71378
5.7251
5.73454
5.74095
5.74423
5.74663
5.75095
5.75951
5.77189
5.78492
5.79505
5.80059
5.80283
5.80536
5.81149
5.82176
5.83323
5.842
5.84601
5.84672
5.84824
5.85505
5.86792
5.88153
5.88972
5.89017
5.88683
5.88429
5.88705
5.89799
5.91274
5.92333
5.92618
5.92417
5.92218
5.92392
5.9322
5.9437
5.9513
5.95225
5.94951
5.94719
5.94835
5.95417
5.96299
5.97025
5.97304
5.97252
5.9722
5.97418
5.97839
5.98169
5.98219
5.98073
5.97956
5.98018
5.98213
5.98377
5.98333
5.98054
5.97674
1.40001
1.40001
1.40001
1.40001
1.40001
1.40001
1.40001
1.40001
1.40001
1.40001
1.40001
1.40001
1.40001
1.40001
1.40001
1.40001
1.40001
1.40001
1.40001
1.40001
1.40001
1.40001
1.40001
1.40001
1.40001
1.40001
1.40001
1.40001
1.40001
1.40001
1.40001
1.40001
1.40001
1.40001
1.40001
1.40001
1.40001
1.40001
1.40001
1.40001
1.40001
1.40001
1.40001
1.40001
1.40001
1.40001
1.40001
1.40001
1.40001
1.40001
1.40001
1.40001
1.40001
1.40001
1.40001
1.40001
1.40001
1.40001
1.40001
1.40001
1.40001
1.40001
1.40001
1.40001
1.40001
1.40001
1.40001
1.40001
1.40001
1.40001
1.40001
1.40001
1.40001
1.40001
1.40001
1.40001
1.40001
1.40001
1.40001
1.40001
1.40001
1.40001
1.40001
1.40001
1.40001
1.40001
1.40001
1.40001
1.40001
1.40001
1.40001
1.40001
1.40001
1.40001
1.40001
1.40001
1.40001
1.40001
1.75656
4.62577
5.41608
5.42267
5.4296
5.43665
5.44538
5.45709
5.47148
5.48732
5.50282
5.51583
5.52432
5.52824
5.53044
5.53577
5.54718
5.56381
5.58174
5.59675
5.605
5.60709
5.60779
5.61218
5.6223
5.63667
5.65207
5.6648
5.67304
5.67851
5.68414
5.69141
5.7012
5.71309
5.72413
5.73275
5.73834
5.74111
5.74355
5.74847
5.75775
5.77025
5.78272
5.79196
5.79691
5.79927
5.80275
5.81033
5.82154
5.8327
5.8399
5.84196
5.84152
5.84346
5.85282
5.86804
5.88154
5.88776
5.88554
5.88051
5.87806
5.8835
5.89806
5.91375
5.92267
5.92239
5.91853
5.9161
5.91955
5.93068
5.94312
5.9496
5.94854
5.94454
5.94203
5.94423
5.95203
5.96201
5.96838
5.96947
5.96809
5.96774
5.97055
5.97569
5.97903
5.97878
5.97663
5.97521
5.97628
5.9792
5.98137
5.98057
5.97688
5.97246
1.40001
1.40001
1.40001
1.40001
1.40001
1.40001
1.40001
1.40001
1.40001
1.40001
1.40001
1.40001
1.40001
1.40001
1.40001
1.40001
1.40001
1.40001
1.40001
1.40001
1.40001
1.40001
1.40001
1.40001
1.40001
1.40001
1.40001
1.40001
1.40001
1.40001
1.40001
1.40001
1.40001
1.40001
1.40001
1.40001
1.40001
1.40001
1.40001
1.40001
1.40001
1.40001
1.40001
1.40001
1.40001
1.40001
1.40001
1.40001
1.40001
1.40001
1.40001
1.40001
1.40001
1.40001
1.40001
1.40001
1.40001
1.40001
1.40001
1.40001
1.40001
1.40001
1.40001
1.40001
1.40001
1.40001
1.40001
1.40001
1.40001
1.40001
1.40001
1.40001
1.40001
1.40001
1.40001
1.40001
1.40001
1.40001
1.40001
1.40001
1.40001
1.40001
1.40001
1.40001
1.40001
1.40001
1.40001
1.40001
1.40001
1.40001
1.40001
1.40001
1.40001
1.40001
1.40001
1.40001
1.40001
1.40001
1.66563
4.51026
5.41687
5.42252
5.42773
5.43504
5.44444
5.45689
5.47163
5.48712
5.50148
5.51283
5.52002
5.52394
5.52801
5.53604
5.54928
5.56548
5.58108
5.59251
5.59824
5.60051
5.60421
5.6123
5.62426
5.63813
5.65155
5.66166
5.66804
5.67344
5.68045
5.68986
5.70104
5.71267
5.72239
5.72933
5.73382
5.73637
5.73962
5.74617
5.75674
5.76933
5.78095
5.78898
5.79305
5.79535
5.79967
5.80865
5.82071
5.83153
5.83728
5.83778
5.83679
5.8396
5.85107
5.86745
5.88015
5.8843
5.88041
5.87454
5.87301
5.88131
5.89806
5.91323
5.92005
5.91771
5.91276
5.91069
5.91623
5.9295
5.94183
5.94672
5.94409
5.9392
5.93686
5.94037
5.95003
5.96063
5.96596
5.96545
5.96339
5.96325
5.96696
5.97274
5.97594
5.97501
5.9723
5.97078
5.97233
5.9761
5.97864
5.97741
5.97288
5.9681
1.40001
1.40001
1.40001
1.40001
1.40001
1.40001
1.40001
1.40001
1.40001
1.40001
1.40001
1.40001
1.40001
1.40001
1.40001
1.40001
1.40001
1.40001
1.40001
1.40001
1.40001
1.40001
1.40001
1.40001
1.40001
1.40001
1.40001
1.40001
1.40001
1.40001
1.40001
1.40001
1.40001
1.40001
1.40001
1.40001
1.40001
1.40001
1.40001
1.40001
1.40001