/*--------------------------------*- C++ -*----------------------------------*\
  =========                 |
  \\      /  F ield         | OpenFOAM: The Open Source CFD Toolbox
   \\    /   O peration     | Website:  https://openfoam.org
    \\  /    A nd           | Version:  7
     \\/     M anipulation  |
\*---------------------------------------------------------------------------*/
FoamFile
{
    version     2.0;
    format      ascii;
    class       volScalarField;
    location    "3.7";
    object      T;
}
// * * * * * * * * * * * * * * * * * * * * * * * * * * * * * * * * * * * * * //

dimensions      [0 0 0 1 0 0 0];

internalField   nonuniform List<scalar> 
258048
(
1
1
1
1
1
1
1
1
1
1
1
1
1
1
1
1
1
1
1
1
1
1
1
1
1
1
1
1
1
1
1
1
1
1
1
1
1
1
1
1
1
1
1
1
1
1
1
1
1
1
1
1
1
1
1
1
1
1
1
1
1
1
1
1
1
1
1
1
1
1
1
1
1
1
1
1
1
1
1
1
1
1
1
1
1
1
1
1
1
1
1
1
1
1
1
1
1
1
1.91654
2.65681
2.68739
2.68512
2.6871
2.69169
2.69643
2.70032
2.70318
2.70436
2.70435
2.70467
2.70616
2.709
2.71306
2.71737
2.72071
2.7226
2.72287
2.72199
2.72121
2.72189
2.72478
2.7297
2.73484
2.73878
2.74087
2.74053
2.739
2.73803
2.73911
2.74304
2.74837
2.7526
2.75463
2.75368
2.75149
2.75019
2.75153
2.75582
2.76073
2.76444
2.76582
2.76498
2.76375
2.76362
2.76549
2.76888
2.77208
2.77374
2.77348
2.77259
2.77225
2.77365
2.77702
2.78081
2.78342
2.78397
2.78324
2.78252
2.78279
2.78442
2.7869
2.78889
2.78959
2.78954
2.78968
2.79062
2.79266
2.79509
2.79666
2.79691
2.79649
2.79612
2.79631
2.79704
2.79804
2.79878
2.79913
2.79932
2.79966
2.80028
2.80103
2.80152
2.80161
2.80159
2.80178
2.80236
2.80336
2.80456
2.80572
2.80673
2.80737
2.80762
1
1
1
1
1
1
1
1
1
1
1
1
1
1
1
1
1
1
1
1
1
1
1
1
1
1
1
1
1
1
1
1
1
1
1
1
1
1
1
1
1
1
1
1
1
1
1
1
1
1
1
1
1
1
1
1
1
1
1
1
1
1
1
1
1
1
1
1
1
1
1
1
1
1
1
1
1
1
1
1
1
1
1
1
1
1
1
1
1
1
1
1
1
1
1
1
1
1
1.91167
2.65326
2.68788
2.68677
2.68848
2.69207
2.69618
2.69964
2.70198
2.70329
2.70416
2.70529
2.70719
2.70988
2.71325
2.71708
2.72035
2.72228
2.72269
2.72212
2.72161
2.72252
2.7254
2.72985
2.73463
2.7384
2.74038
2.7402
2.739
2.73837
2.73957
2.74325
2.74827
2.75239
2.75442
2.75365
2.75169
2.75059
2.75183
2.75589
2.76069
2.76437
2.76583
2.76511
2.76399
2.76384
2.76556
2.76881
2.77199
2.77371
2.77356
2.77277
2.77245
2.77378
2.77705
2.78078
2.7834
2.78402
2.78334
2.78264
2.78288
2.78444
2.78686
2.78887
2.78964
2.78963
2.78978
2.7907
2.79266
2.79502
2.79659
2.79691
2.79653
2.79619
2.79636
2.79703
2.79795
2.79868
2.79907
2.79933
2.79971
2.80032
2.801
2.80142
2.8015
2.80152
2.80176
2.80236
2.80335
2.8045
2.80563
2.80664
2.80732
2.80761
1
1
1
1
1
1
1
1
1
1
1
1
1
1
1
1
1
1
1
1
1
1
1
1
1
1
1
1
1
1
1
1
1
1
1
1
1
1
1
1
1
1
1
1
1
1
1
1
1
1
1
1
1
1
1
1
1
1
1
1
1
1
1
1
1
1
1
1
1
1
1
1
1
1
1
1
1
1
1
1
1
1
1
1
1
1
1
1
1
1
1
1
1
1
1
1
1
1
1.90378
2.64887
2.68749
2.68776
2.68994
2.6928
2.69597
2.69866
2.7006
2.70202
2.70353
2.70559
2.70817
2.71099
2.71386
2.71692
2.71968
2.7214
2.72191
2.72167
2.7217
2.72317
2.72619
2.73028
2.73461
2.73795
2.73952
2.73933
2.73849
2.73844
2.74001
2.74359
2.74815
2.75188
2.75365
2.75302
2.75154
2.75092
2.75225
2.75599
2.76041
2.76386
2.76533
2.76485
2.76402
2.764
2.76559
2.76855
2.77153
2.77324
2.77326
2.7727
2.77255
2.77386
2.77694
2.7805
2.78305
2.78375
2.78321
2.78262
2.78285
2.7843
2.78658
2.78856
2.7894
2.78949
2.78973
2.79067
2.79255
2.79479
2.79632
2.79671
2.79642
2.79616
2.79635
2.79699
2.79781
2.79847
2.79889
2.79924
2.79972
2.80036
2.80097
2.80128
2.80132
2.80137
2.80168
2.80234
2.80332
2.80442
2.80551
2.80652
2.80725
2.8076
1
1
1
1
1
1
1
1
1
1
1
1
1
1
1
1
1
1
1
1
1
1
1
1
1
1
1
1
1
1
1
1
1
1
1
1
1
1
1
1
1
1
1
1
1
1
1
1
1
1
1
1
1
1
1
1
1
1
1
1
1
1
1
1
1
1
1
1
1
1
1
1
1
1
1
1
1
1
1
1
1
1
1
1
1
1
1
1
1
1
1
1
1
1
1
1
1
1
1.8952
2.64419
2.68726
2.68823
2.69089
2.69337
2.6956
2.6976
2.69928
2.70085
2.70318
2.70624
2.70934
2.71207
2.7144
2.71671
2.71894
2.72051
2.72119
2.7214
2.72215
2.72417
2.7271
2.73069
2.73443
2.73726
2.73853
2.73853
2.73823
2.73874
2.74067
2.74393
2.74785
2.75114
2.75276
2.75242
2.75153
2.75144
2.75283
2.75616
2.76011
2.76329
2.76476
2.76461
2.76411
2.76422
2.76567
2.76832
2.77107
2.77272
2.77298
2.77268
2.77272
2.77403
2.7769
2.78025
2.78271
2.78347
2.78309
2.78266
2.78292
2.78427
2.7864
2.78826
2.78915
2.78938
2.78972
2.79069
2.79251
2.79462
2.79609
2.79652
2.79631
2.79614
2.79636
2.79695
2.7977
2.79829
2.7987
2.79912
2.79969
2.80035
2.80088
2.80111
2.80112
2.80119
2.80156
2.80226
2.80324
2.80429
2.80535
2.80635
2.80713
2.80754
1
1
1
1
1
1
1
1
1
1
1
1
1
1
1
1
1
1
1
1
1
1
1
1
1
1
1
1
1
1
1
1
1
1
1
1
1
1
1
1
1
1
1
1
1
1
1
1
1
1
1
1
1
1
1
1
1
1
1
1
1
1
1
1
1
1
1
1
1
1
1
1
1
1
1
1
1
1
1
1
1
1
1
1
1
1
1
1
1
1
1
1
1
1
1
1
1
1
1.88505
2.64003
2.68795
2.68859
2.69121
2.69344
2.6952
2.69669
2.69833
2.70006
2.70311
2.70684
2.71027
2.71296
2.71489
2.71648
2.71807
2.71947
2.72042
2.72129
2.72286
2.72521
2.72794
2.731
2.73406
2.73634
2.73743
2.73769
2.73809
2.73932
2.74143
2.74422
2.74738
2.75009
2.75156
2.75174
2.75152
2.75198
2.75354
2.75642
2.75976
2.7625
2.76395
2.76424
2.76413
2.76446
2.76584
2.76812
2.77048
2.77205
2.77258
2.77258
2.77286
2.77426
2.7769
2.77994
2.78221
2.78303
2.78285
2.78262
2.78298
2.78426
2.78618
2.78789
2.78881
2.78918
2.78964
2.79068
2.79245
2.79442
2.79581
2.79627
2.79614
2.79605
2.79629
2.79686
2.79755
2.79811
2.79851
2.79897
2.79959
2.80027
2.80074
2.80092
2.80092
2.801
2.80139
2.80213
2.8031
2.80412
2.80516
2.80616
2.80698
2.80742
1
1
1
1
1
1
1
1
1
1
1
1
1
1
1
1
1
1
1
1
1
1
1
1
1
1
1
1
1
1
1
1
1
1
1
1
1
1
1
1
1
1
1
1
1
1
1
1
1
1
1
1
1
1
1
1
1
1
1
1
1
1
1
1
1
1
1
1
1
1
1
1
1
1
1
1
1
1
1
1
1
1
1
1
1
1
1
1
1
1
1
1
1
1
1
1
1
1
1.8706
2.63653
2.68853
2.689
2.69149
2.69322
2.69469
2.69594
2.69757
2.69964
2.70317
2.70726
2.7109
2.71353
2.7151
2.71607
2.71716
2.7185
2.71985
2.72146
2.72367
2.72613
2.72853
2.73098
2.73331
2.73512
2.73624
2.73706
2.7383
2.74008
2.74209
2.74429
2.74664
2.74881
2.75031
2.75105
2.75161
2.75263
2.75423
2.7566
2.75928
2.76158
2.76306
2.76376
2.76413
2.76475
2.76604
2.76791
2.76985
2.7713
2.77205
2.77241
2.77302
2.7745
2.7769
2.77958
2.78164
2.78251
2.78253
2.78254
2.78301
2.78425
2.78598
2.78752
2.78842
2.7889
2.7895
2.79064
2.79237
2.7942
2.79551
2.796
2.79593
2.7959
2.79615
2.79672
2.79739
2.79794
2.79835
2.79881
2.79942
2.80008
2.80054
2.80072
2.80073
2.80081
2.80119
2.80192
2.80288
2.80391
2.80496
2.80597
2.8068
2.80724
1
1
1
1
1
1
1
1
1
1
1
1
1
1
1
1
1
1
1
1
1
1
1
1
1
1
1
1
1
1
1
1
1
1
1
1
1
1
1
1
1
1
1
1
1
1
1
1
1
1
1
1
1
1
1
1
1
1
1
1
1
1
1
1
1
1
1
1
1
1
1
1
1
1
1
1
1
1
1
1
1
1
1
1
1
1
1
1
1
1
1
1
1
1
1
1
1
1
1.84743
2.63225
2.68824
2.68912
2.6918
2.69314
2.69429
2.69538
2.69705
2.69953
2.70328
2.70746
2.71111
2.71356
2.71481
2.71539
2.71626
2.71775
2.71957
2.72185
2.72442
2.72676
2.72874
2.73052
2.73219
2.73374
2.73513
2.73672
2.73875
2.7408
2.74254
2.74416
2.74578
2.74751
2.74912
2.75042
2.75177
2.75322
2.75476
2.75662
2.75868
2.7606
2.76213
2.76325
2.76412
2.76502
2.7662
2.76765
2.76918
2.77049
2.77143
2.77216
2.77312
2.77471
2.77689
2.77919
2.78098
2.78189
2.78218
2.78241
2.783
2.7842
2.78575
2.78712
2.78801
2.78861
2.78934
2.79054
2.7922
2.79391
2.79517
2.7957
2.79571
2.7957
2.79595
2.7965
2.79717
2.79776
2.79821
2.79865
2.7992
2.7998
2.80027
2.80049
2.80054
2.80062
2.80097
2.80164
2.80259
2.80366
2.80475
2.80578
2.80659
2.80699
1
1
1
1
1
1
1
1
1
1
1
1
1
1
1
1
1
1
1
1
1
1
1
1
1
1
1
1
1
1
1
1
1
1
1
1
1
1
1
1
1
1
1
1
1
1
1
1
1
1
1
1
1
1
1
1
1
1
1
1
1
1
1
1
1
1
1
1
1
1
1
1
1
1
1
1
1
1
1
1
1
1
1
1
1
1
1
1
1
1
1
1
1
1
1
1
1
1
1.81649
2.62733
2.6875
2.68905
2.69178
2.6929
2.69399
2.69509
2.69683
2.69952
2.70322
2.70722
2.71064
2.71289
2.714
2.7146
2.71565
2.71741
2.71967
2.72234
2.72489
2.72694
2.72845
2.72962
2.73089
2.73246
2.73434
2.73669
2.73922
2.74128
2.74269
2.74376
2.74487
2.74634
2.74814
2.75
2.75194
2.75363
2.75501
2.75642
2.75795
2.75958
2.76124
2.76281
2.76416
2.76526
2.76626
2.76731
2.76846
2.76965
2.77079
2.7719
2.7732
2.77485
2.77681
2.77876
2.78032
2.78127
2.78178
2.78223
2.78295
2.78407
2.78542
2.78665
2.78758
2.78833
2.7892
2.79041
2.79194
2.79351
2.79473
2.79535
2.79549
2.79551
2.79572
2.79621
2.79688
2.79754
2.79806
2.79851
2.79898
2.79948
2.79993
2.80022
2.80033
2.80041
2.80071
2.80133
2.80225
2.80337
2.80452
2.80557
2.80634
2.80668
1
1
1
1
1
1
1
1
1
1
1
1
1
1
1
1
1
1
1
1
1
1
1
1
1
1
1
1
1
1
1
1
1
1
1
1
1
1
1
1
1
1
1
1
1
1
1
1
1
1
1
1
1
1
1
1
1
1
1
1
1
1
1
1
1
1
1
1
1
1
1
1
1
1
1
1
1
1
1
1
1
1
1
1
1
1
1
1
1
1
1
1
1
1
1
1
1
1
1.78331
2.62155
2.68615
2.68848
2.6913
2.69261
2.69392
2.69513
2.69684
2.69943
2.70277
2.70632
2.70941
2.71162
2.713
2.71405
2.71548
2.7175
2.71996
2.7226
2.7249
2.72659
2.72768
2.72852
2.72972
2.73154
2.73396
2.7368
2.73947
2.74139
2.7425
2.74319
2.74406
2.74549
2.7475
2.74982
2.75209
2.75382
2.755
2.75602
2.75717
2.75865
2.76053
2.76253
2.76422
2.76539
2.76616
2.76683
2.76771
2.76886
2.77023
2.77171
2.77326
2.77489
2.77659
2.77823
2.77963
2.78067
2.78141
2.78207
2.78283
2.7838
2.78493
2.78607
2.78712
2.78812
2.78914
2.79028
2.79159
2.79297
2.79417
2.79496
2.79528
2.79535
2.79549
2.79586
2.7965
2.79724
2.79788
2.79836
2.79876
2.79915
2.79953
2.79987
2.80006
2.80016
2.80042
2.80099
2.80188
2.80305
2.80426
2.80532
2.80606
2.80633
1
1
1
1
1
1
1
1
1
1
1
1
1
1
1
1
1
1
1
1
1
1
1
1
1
1
1
1
1
1
1
1
1
1
1
1
1
1
1
1
1
1
1
1
1
1
1
1
1
1
1
1
1
1
1
1
1
1
1
1
1
1
1
1
1
1
1
1
1
1
1
1
1
1
1
1
1
1
1
1
1
1
1
1
1
1
1
1
1
1
1
1
1
1
1
1
1
1
1.74855
2.61435
2.68408
2.68736
2.6907
2.6925
2.69414
2.69548
2.697
2.69917
2.70187
2.70487
2.70776
2.71025
2.71224
2.71393
2.71572
2.71779
2.72008
2.72236
2.72426
2.72563
2.72659
2.72753
2.72898
2.73111
2.73382
2.73673
2.73927
2.74102
2.74193
2.74251
2.74338
2.74492
2.74714
2.74969
2.75205
2.75372
2.7547
2.75546
2.75639
2.75789
2.76003
2.76233
2.76419
2.7653
2.76582
2.76623
2.76695
2.76819
2.76985
2.77163
2.77328
2.77477
2.77618
2.77758
2.77892
2.78014
2.78115
2.78197
2.78268
2.7834
2.78427
2.78536
2.78664
2.78796
2.78913
2.79016
2.79117
2.7923
2.7935
2.79452
2.79507
2.7952
2.79526
2.79549
2.79603
2.79684
2.79764
2.79822
2.79857
2.79883
2.79911
2.79945
2.79971
2.79987
2.80012
2.80063
2.80149
2.80269
2.80396
2.80502
2.80574
2.80596
1
1
1
1
1
1
1
1
1
1
1
1
1
1
1
1
1
1
1
1
1
1
1
1
1
1
1
1
1
1
1
1
1
1
1
1
1
1
1
1
1
1
1
1
1
1
1
1
1
1
1
1
1
1
1
1
1
1
1
1
1
1
1
1
1
1
1
1
1
1
1
1
1
1
1
1
1
1
1
1
1
1
1
1
1
1
1
1
1
1
1
1
1
1
1
1
1
1
1.7101
2.60512
2.68186
2.68618
2.69024
2.69257
2.6945
2.69582
2.69708
2.69872
2.70078
2.70331
2.70615
2.70912
2.71182
2.71405
2.71604
2.71795
2.71981
2.72157
2.72311
2.72437
2.7255
2.72681
2.72864
2.731
2.7337
2.73636
2.7386
2.74019
2.74112
2.74183
2.7429
2.74464
2.74698
2.74952
2.75178
2.75331
2.75414
2.75477
2.75568
2.75734
2.75969
2.7621
2.76394
2.7649
2.76522
2.76548
2.76623
2.7677
2.76966
2.77162
2.77322
2.77446
2.77558
2.77679
2.7782
2.77968
2.78098
2.78189
2.78245
2.78288
2.78348
2.78457
2.78615
2.78781
2.78912
2.79
2.79069
2.79156
2.79275
2.79402
2.79483
2.79502
2.79499
2.79509
2.79551
2.79635
2.79732
2.79804
2.79838
2.79852
2.79869
2.79898
2.79931
2.79956
2.7998
2.80026
2.8011
2.8023
2.8036
2.80468
2.80539
2.80556
1
1
1
1
1
1
1
1
1
1
1
1
1
1
1
1
1
1
1
1
1
1
1
1
1
1
1
1
1
1
1
1
1
1
1
1
1
1
1
1
1
1
1
1
1
1
1
1
1
1
1
1
1
1
1
1
1
1
1
1
1
1
1
1
1
1
1
1
1
1
1
1
1
1
1
1
1
1
1
1
1
1
1
1
1
1
1
1
1
1
1
1
1
1
1
1
1
1
1.66733
2.59433
2.67997
2.68528
2.68998
2.6927
2.69474
2.69592
2.69689
2.69804
2.69961
2.70187
2.70495
2.70853
2.71178
2.71426
2.71612
2.71765
2.719
2.72036
2.72176
2.72318
2.72465
2.72634
2.72843
2.73088
2.73346
2.73583
2.73772
2.73913
2.74015
2.74111
2.74249
2.74448
2.74687
2.74931
2.75137
2.7527
2.75337
2.75398
2.75502
2.75692
2.75943
2.76185
2.76355
2.76429
2.76442
2.76466
2.76559
2.76739
2.7696
2.7716
2.77304
2.77399
2.77483
2.77594
2.7775
2.77931
2.78086
2.78176
2.7821
2.78224
2.78264
2.78378
2.78568
2.78767
2.78906
2.78975
2.79016
2.7908
2.79199
2.79348
2.79452
2.79476
2.79467
2.79464
2.79497
2.79584
2.79696
2.79781
2.79815
2.79819
2.79824
2.79848
2.79886
2.79919
2.79943
2.79985
2.80067
2.80185
2.80318
2.80429
2.80499
2.80513
1
1
1
1
1
1
1
1
1
1
1
1
1
1
1
1
1
1
1
1
1
1
1
1
1
1
1
1
1
1
1
1
1
1
1
1
1
1
1
1
1
1
1
1
1
1
1
1
1
1
1
1
1
1
1
1
1
1
1
1
1
1
1
1
1
1
1
1
1
1
1
1
1
1
1
1
1
1
1
1
1
1
1
1
1
1
1
1
1
1
1
1
1
1
1
1
1
1
1.61957
2.58126
2.67895
2.6846
2.68974
2.69271
2.69467
2.69565
2.6963
2.69713
2.69848
2.70082
2.70434
2.70836
2.71179
2.71418
2.71573
2.71684
2.71785
2.71914
2.72068
2.72227
2.7239
2.72579
2.72807
2.73056
2.73305
2.73521
2.73685
2.73808
2.73915
2.74034
2.74202
2.74427
2.74674
2.74906
2.75085
2.75192
2.75248
2.75314
2.75439
2.75653
2.75915
2.7615
2.76299
2.7635
2.76352
2.76386
2.76508
2.76719
2.76954
2.77148
2.77269
2.77337
2.77401
2.77512
2.77691
2.77902
2.7807
2.78147
2.78154
2.7815
2.78183
2.78314
2.78532
2.78747
2.78881
2.7893
2.78952
2.79006
2.7913
2.79296
2.79413
2.79439
2.79422
2.79411
2.79443
2.79534
2.79657
2.79751
2.79785
2.79782
2.79779
2.79798
2.7984
2.79878
2.79902
2.7994
2.80019
2.80138
2.80274
2.80387
2.80455
2.80465
1
1
1
1
1
1
1
1
1
1
1
1
1
1
1
1
1
1
1
1
1
1
1
1
1
1
1
1
1
1
1
1
1
1
1
1
1
1
1
1
1
1
1
1
1
1
1
1
1
1
1
1
1
1
1
1
1
1
1
1
1
1
1
1
1
1
1
1
1
1
1
1
1
1
1
1
1
1
1
1
1
1
1
1
1
1
1
1
1
1
1
1
1
1
1
1
1
1
1.56725
2.56524
2.67871
2.68423
2.68946
2.69245
2.69423
2.69493
2.69537
2.69613
2.69762
2.70034
2.70421
2.7083
2.71153
2.71355
2.71476
2.71567
2.71674
2.71833
2.72007
2.72165
2.72316
2.725
2.72738
2.73
2.73256
2.73467
2.73614
2.73718
2.73818
2.73948
2.74141
2.74393
2.74651
2.74874
2.75028
2.75109
2.75153
2.75223
2.75369
2.75606
2.75875
2.76101
2.76229
2.76263
2.76266
2.76315
2.76467
2.76698
2.76937
2.77116
2.77212
2.77259
2.77316
2.77441
2.77648
2.77876
2.78036
2.7809
2.78079
2.78067
2.78111
2.78272
2.7851
2.78722
2.78832
2.78859
2.78874
2.78935
2.79075
2.79251
2.79366
2.79386
2.79365
2.79353
2.7939
2.79491
2.7962
2.79714
2.79743
2.79735
2.79729
2.79749
2.79795
2.79833
2.79853
2.79888
2.79965
2.80088
2.8023
2.80344
2.80406
2.80411
1
1
1
1
1
1
1
1
1
1
1
1
1
1
1
1
1
1
1
1
1
1
1
1
1
1
1
1
1
1
1
1
1
1
1
1
1
1
1
1
1
1
1
1
1
1
1
1
1
1
1
1
1
1
1
1
1
1
1
1
1
1
1
1
1
1
1
1
1
1
1
1
1
1
1
1
1
1
1
1
1
1
1
1
1
1
1
1
1
1
1
1
1
1
1
1
1
1
1.50931
2.54552
2.67902
2.68437
2.68926
2.69191
2.69333
2.69382
2.69428
2.69525
2.69716
2.70029
2.70429
2.70811
2.71083
2.7124
2.71344
2.7145
2.71603
2.718
2.7198
2.72119
2.72242
2.7241
2.72655
2.72938
2.73216
2.73429
2.73561
2.73641
2.73725
2.73858
2.7407
2.7435
2.74624
2.7484
2.74973
2.75031
2.75062
2.75132
2.75294
2.75547
2.7582
2.76037
2.76152
2.7618
2.7619
2.76262
2.76436
2.76675
2.76904
2.7706
2.77132
2.77168
2.77236
2.77393
2.77628
2.77853
2.77982
2.78
2.7798
2.77976
2.78056
2.78259
2.78505
2.78688
2.78757
2.78764
2.78784
2.78869
2.79035
2.79215
2.79314
2.79316
2.79291
2.79287
2.79338
2.79454
2.79586
2.79671
2.79688
2.79675
2.79673
2.79701
2.79751
2.79784
2.79797
2.79826
2.79905
2.80037
2.80188
2.80299
2.80354
2.80349
1
1
1
1
1
1
1
1
1
1
1
1
1
1
1
1
1
1
1
1
1
1
1
1
1
1
1
1
1
1
1
1
1
1
1
1
1
1
1
1
1
1
1
1
1
1
1
1
1
1
1
1
1
1
1
1
1
1
1
1
1
1
1
1
1
1
1
1
1
1
1
1
1
1
1
1
1
1
1
1
1
1
1
1
1
1
1
1
1
1
1
1
1
1
1
1
1
1
1.44425
2.52183
2.68015
2.68477
2.68891
2.69109
2.69216
2.69265
2.69336
2.69475
2.69714
2.7005
2.70434
2.70763
2.70975
2.71101
2.71212
2.71361
2.71568
2.71787
2.71955
2.72061
2.72151
2.72307
2.72567
2.72882
2.73182
2.73396
2.73512
2.73567
2.73631
2.73762
2.73992
2.74299
2.74588
2.74802
2.74918
2.74955
2.74973
2.7504
2.75213
2.75477
2.75751
2.75961
2.76067
2.76096
2.7612
2.76215
2.76408
2.76649
2.7686
2.76985
2.77034
2.77067
2.77162
2.77367
2.77625
2.77826
2.77906
2.77887
2.77856
2.77878
2.78022
2.78271
2.78509
2.78639
2.78658
2.78653
2.78685
2.78811
2.7901
2.79183
2.79252
2.79233
2.79203
2.79211
2.79287
2.79424
2.79555
2.79621
2.7962
2.79603
2.79611
2.79655
2.79708
2.79732
2.79733
2.79756
2.7984
2.79986
2.80146
2.80252
2.80295
2.8028
1
1
1
1
1
1
1
1
1
1
1
1
1
1
1
1
1
1
1
1
1
1
1
1
1
1
1
1
1
1
1
1
1
1
1
1
1
1
1
1
1
1
1
1
1
1
1
1
1
1
1
1
1
1
1
1
1
1
1
1
1
1
1
1
1
1
1
1
1
1
1
1
1
1
1
1
1
1
1
1
1
1
1
1
1
1
1
1
1
1
1
1
1
1
1
1
1
1
1.37411
2.49439
2.68163
2.68558
2.68856
2.69013
2.69096
2.69163
2.69272
2.69456
2.6973
2.70077
2.70429
2.70696
2.70857
2.70977
2.71119
2.71318
2.7156
2.71782
2.71921
2.71983
2.72044
2.72212
2.72507
2.72853
2.73159
2.73361
2.73454
2.73486
2.73535
2.7367
2.73921
2.74249
2.74546
2.74753
2.74854
2.74875
2.74886
2.74955
2.75141
2.75411
2.75683
2.7588
2.75979
2.7601
2.76052
2.76173
2.76385
2.76623
2.76808
2.76898
2.76922
2.76959
2.77097
2.77353
2.77623
2.77789
2.77808
2.77758
2.7772
2.77782
2.78
2.78289
2.78503
2.78571
2.78548
2.7853
2.78584
2.78761
2.78993
2.7915
2.79179
2.7914
2.79103
2.79128
2.79237
2.79398
2.79523
2.79564
2.79543
2.79523
2.79545
2.79609
2.79663
2.79674
2.79663
2.7968
2.79771
2.79934
2.80104
2.80202
2.80231
2.80204
1
1
1
1
1
1
1
1
1
1
1
1
1
1
1
1
1
1
1
1
1
1
1
1
1
1
1
1
1
1
1
1
1
1
1
1
1
1
1
1
1
1
1
1
1
1
1
1
1
1
1
1
1
1
1
1
1
1
1
1
1
1
1
1
1
1
1
1
1
1
1
1
1
1
1
1
1
1
1
1
1
1
1
1
1
1
1
1
1
1
1
1
1
1
1
1
1
1
1.30311
2.46414
2.68309
2.68621
2.68797
2.68905
2.6899
2.69098
2.69255
2.69472
2.69751
2.70069
2.70365
2.70583
2.70738
2.70894
2.71086
2.71314
2.71543
2.71721
2.71815
2.71854
2.71933
2.72155
2.72493
2.72849
2.73138
2.73309
2.73371
2.73388
2.73439
2.73594
2.73867
2.74204
2.74495
2.74686
2.74772
2.74782
2.74791
2.74876
2.75081
2.75359
2.75621
2.75801
2.75885
2.75917
2.75974
2.76125
2.76359
2.76594
2.7675
2.76803
2.76805
2.76851
2.77038
2.77337
2.77606
2.77735
2.77705
2.77624
2.77588
2.77703
2.7799
2.78298
2.78478
2.78486
2.78433
2.78405
2.78491
2.78721
2.78971
2.79107
2.79099
2.79037
2.78997
2.79043
2.7919
2.79372
2.79485
2.79496
2.79459
2.79439
2.79477
2.79559
2.79614
2.7961
2.79587
2.796
2.797
2.7988
2.80057
2.80147
2.8016
2.80123
1
1
1
1
1
1
1
1
1
1
1
1
1
1
1
1
1
1
1
1
1
1
1
1
1
1
1
1
1
1
1
1
1
1
1
1
1
1
1
1
1
1
1
1
1
1
1
1
1
1
1
1
1
1
1
1
1
1
1
1
1
1
1
1
1
1
1
1
1
1
1
1
1
1
1
1
1
1
1
1
1
1
1
1
1
1
1
1
1
1
1
1
1
1
1
1
1
1
1.23405
2.42983
2.68345
2.68598
2.68709
2.68812
2.68921
2.6907
2.69265
2.69501
2.69768
2.7004
2.70279
2.70472
2.7065
2.70855
2.71087
2.7132
2.71516
2.7164
2.71693
2.71732
2.71868
2.72149
2.72507
2.72849
2.73104
2.73232
2.73264
2.7328
2.7336
2.73555
2.73845
2.74167
2.74427
2.74584
2.74651
2.7466
2.74687
2.74808
2.75042
2.75323
2.75569
2.75724
2.75789
2.75816
2.75889
2.76069
2.76322
2.76553
2.76681
2.76702
2.76694
2.76759
2.76985
2.77307
2.7756
2.77652
2.77593
2.77496
2.77478
2.77649
2.77979
2.78276
2.78416
2.78387
2.78312
2.78291
2.78417
2.78686
2.78935
2.79042
2.79007
2.78927
2.78891
2.78962
2.79145
2.7934
2.79436
2.79419
2.79369
2.79354
2.79409
2.79504
2.79557
2.79541
2.79507
2.79519
2.79628
2.79822
2.80003
2.80085
2.80084
2.80038
1
1
1
1
1
1
1
1
1
1
1
1
1
1
1
1
1
1
1
1
1
1
1
1
1
1
1
1
1
1
1
1
1
1
1
1
1
1
1
1
1
1
1
1
1
1
1
1
1
1
1
1
1
1
1
1
1
1
1
1
1
1
1
1
1
1
1
1
1
1
1
1
1
1
1
1
1
1
1
1
1
1
1
1
1
1
1
1
1
1
1
1
1
1
1
1
1
1
1.16308
2.38885
2.68197
2.68464
2.68594
2.68731
2.68879
2.69062
2.69274
2.69507
2.69747
2.69975
2.70185
2.70384
2.70598
2.70839
2.71087
2.71302
2.71452
2.71532
2.71574
2.71652
2.71854
2.72176
2.72529
2.72834
2.73035
2.73117
2.73135
2.73177
2.73314
2.73554
2.73848
2.74136
2.74348
2.7446
2.74511
2.74529
2.74592
2.74763
2.75019
2.75291
2.75512
2.75637
2.75685
2.75715
2.75808
2.76011
2.76271
2.76489
2.76592
2.76597
2.76593
2.76687
2.76942
2.77258
2.77482
2.7754
2.77471
2.7738
2.77403
2.77622
2.77954
2.78218
2.78315
2.78267
2.78192
2.78197
2.78369
2.78655
2.78882
2.78953
2.78898
2.78813
2.78791
2.78894
2.79104
2.79295
2.79368
2.79332
2.79277
2.79272
2.79342
2.79443
2.79489
2.79463
2.79422
2.79436
2.79556
2.79759
2.79938
2.80014
2.80002
2.79952
1
1
1
1
1
1
1
1
1
1
1
1
1
1
1
1
1
1
1
1
1
1
1
1
1
1
1
1
1
1
1
1
1
1
1
1
1
1
1
1
1
1
1
1
1
1
1
1
1
1
1
1
1
1
1
1
1
1
1
1
1
1
1
1
1
1
1
1
1
1
1
1
1
1
1
1
1
1
1
1
1
1
1
1
1
1
1
1
1
1
1
1
1
1
1
1
1
1
1.08756
2.34606
2.68125
2.68286
2.68469
2.68664
2.68854
2.69063
2.69285
2.69504
2.69709
2.69905
2.70104
2.70321
2.70565
2.70823
2.71065
2.71253
2.71368
2.71429
2.71492
2.71626
2.71882
2.72217
2.7254
2.7279
2.72934
2.72979
2.73004
2.731
2.73303
2.73571
2.73852
2.74093
2.74246
2.74315
2.74357
2.74403
2.74524
2.74737
2.74995
2.75244
2.75432
2.75533
2.75577
2.75623
2.75747
2.75963
2.76206
2.76391
2.76472
2.76482
2.76508
2.76649
2.76914
2.77193
2.77368
2.77392
2.77335
2.77285
2.77367
2.77616
2.77919
2.78127
2.78177
2.78127
2.78076
2.78129
2.78342
2.7862
2.78807
2.78839
2.78774
2.78697
2.78702
2.78839
2.79063
2.79234
2.79279
2.79237
2.79184
2.79193
2.79278
2.79376
2.7941
2.79377
2.79334
2.79355
2.79485
2.79691
2.79864
2.79933
2.79914
2.79866
1
1
1
1
1
1
1
1
1
1
1
1
1
1
1
1
1
1
1
1
1
1
1
1
1
1
1
1
1
1
1
1
1
1
1
1
1
1
1
1
1
1
1
1
1
1
1
1
1
1
1
1
1
1
1
1
1
1
1
1
1
1
1
1
1
1
1
1
1
1
1
1
1
1
1
1
1
1
1
1
1
1
1
1
1
1
1
1
1
1
1
1
1
1
1
1
1
1
1.01407
2.30479
2.68003
2.68165
2.68369
2.68603
2.68831
2.69058
2.69273
2.69469
2.69652
2.69841
2.70051
2.70289
2.70549
2.70811
2.71033
2.71187
2.71279
2.71349
2.71456
2.71646
2.71932
2.72247
2.72525
2.72717
2.7281
2.72837
2.72895
2.73061
2.7331
2.73586
2.73838
2.7402
2.74114
2.74154
2.74209
2.74309
2.74493
2.74728
2.74965
2.75173
2.7532
2.75405
2.75465
2.75555
2.75718
2.75931
2.7613
2.76262
2.7632
2.76352
2.76438
2.76637
2.76894
2.77115
2.77227
2.77224
2.77192
2.77207
2.77359
2.77619
2.77869
2.78008
2.78014
2.77977
2.77972
2.78086
2.78329
2.78575
2.78709
2.78704
2.78636
2.78584
2.78627
2.78797
2.79016
2.79155
2.79174
2.79132
2.79092
2.79119
2.79215
2.79301
2.79319
2.7928
2.7924
2.79273
2.79414
2.79616
2.79779
2.79842
2.79821
2.79781
1
1
1
1
1
1
1
1
1
1
1
1
1
1
1
1
1
1
1
1
1
1
1
1
1
1
1
1
1
1
1
1
1
1
1
1
1
1
1
1
1
1
1
1
1
1
1
1
1
1
1
1
1
1
1
1
1
1
1
1
1
1
1
1
1
1
1
1
1
1
1
1
1
1
1
1
1
1
1
1
1
1
1
1
1
1
1
1
1
1
1
1
1
1
1
1
1
1
1.00021
2.25327
2.67896
2.68225
2.68421
2.68651
2.68868
2.69076
2.6927
2.6945
2.69629
2.69822
2.70044
2.7029
2.70544
2.70784
2.70976
2.7111
2.71208
2.71312
2.71463
2.7169
2.71974
2.72258
2.72488
2.72626
2.72684
2.72721
2.72835
2.73054
2.73321
2.7358
2.73786
2.73907
2.73953
2.73996
2.74094
2.74265
2.74495
2.74727
2.74923
2.75073
2.75175
2.75256
2.7536
2.75517
2.75717
2.75909
2.76047
2.76115
2.76148
2.76215
2.76381
2.76629
2.76871
2.77025
2.7707
2.77053
2.77049
2.7714
2.77358
2.77615
2.77799
2.77863
2.77843
2.77823
2.77876
2.78059
2.78316
2.78515
2.78587
2.78553
2.78492
2.78478
2.78565
2.78759
2.78957
2.79057
2.79055
2.7902
2.79
2.7905
2.79149
2.79218
2.79218
2.79174
2.79143
2.79191
2.79341
2.79535
2.79683
2.79741
2.79723
2.79696
1
1
1
1
1
1
1
1
1
1
1
1
1
1
1
1
1
1
1
1
1
1
1
1
1
1
1
1
1
1
1
1
1
1
1
1
1
1
1
1
1
1
1
1
1
1
1
1
1
1
1
1
1
1
1
1
1
1
1
1
1
1
1
1
1
1
1
1
1
1
1
1
1
1
1
1
1
1
1
1
1
1
1
1
1
1
1
1
1
1
1
1
1
1
1
1
1
1
1
2.19053
2.67715
2.68277
2.68485
2.68698
2.689
2.6909
2.69269
2.6945
2.69639
2.69843
2.70068
2.7031
2.70544
2.7075
2.70914
2.71044
2.71167
2.71311
2.71499
2.71736
2.71999
2.72244
2.72414
2.72507
2.72562
2.72647
2.72822
2.73069
2.73326
2.73548
2.73694
2.73757
2.73781
2.7386
2.7403
2.74261
2.74507
2.7472
2.74865
2.74954
2.75015
2.75103
2.75261
2.75483
2.7571
2.75876
2.75949
2.75957
2.75974
2.76087
2.76327
2.76609
2.76824
2.76917
2.7691
2.76888
2.76918
2.77087
2.7735
2.77586
2.77704
2.77706
2.77676
2.77679
2.77795
2.78035
2.78289
2.78434
2.78447
2.78396
2.78348
2.78377
2.78513
2.7872
2.78885
2.78942
2.78927
2.78902
2.78908
2.78985
2.7908
2.79124
2.79106
2.79061
2.79043
2.7911
2.79267
2.79445
2.79576
2.79631
2.79621
2.7961
1
1
1
1
1
1
1
1
1
1
1
1
1
1
1
1
1
1
1
1
1
1
1
1
1
1
1
1
1
1
1
1
1
1
1
1
1
1
1
1
1
1
1
1
1
1
1
1
1
1
1
1
1
1
1
1
1
1
1
1
1
1
1
1
1
1
1
1
1
1
1
1
1
1
1
1
1
1
1
1
1
1
1
1
1
1
1
1
1
1
1
1
1
1
1
1
1
1
1
2.11692
2.67159
2.68196
2.68435
2.68669
2.68871
2.69057
2.69244
2.69445
2.6966
2.69878
2.70099
2.7032
2.70527
2.70706
2.70859
2.71005
2.71167
2.71352
2.7156
2.71784
2.72007
2.72188
2.72304
2.72382
2.72476
2.72627
2.72848
2.73098
2.73326
2.73495
2.7358
2.73596
2.73632
2.73778
2.74006
2.74266
2.74508
2.74691
2.74788
2.74831
2.7487
2.74973
2.75176
2.75437
2.75672
2.75806
2.75825
2.75808
2.75832
2.75991
2.76269
2.76555
2.76738
2.76785
2.76762
2.76744
2.76818
2.7704
2.77315
2.77513
2.77579
2.77552
2.77517
2.77552
2.77727
2.78001
2.78231
2.78326
2.78298
2.78237
2.78212
2.78284
2.78463
2.7867
2.78795
2.78812
2.78792
2.78781
2.7882
2.7892
2.79002
2.79018
2.78983
2.7894
2.78941
2.7903
2.79189
2.79346
2.79458
2.79511
2.79515
2.79525
1
1
1
1
1
1
1
1
1
1
1
1
1
1
1
1
1
1
1
1
1
1
1
1
1
1
1
1
1
1
1
1
1
1
1
1
1
1
1
1
1
1
1
1
1
1
1
1
1
1
1
1
1
1
1
1
1
1
1
1
1
1
1
1
1
1
1
1
1
1
1
1
1
1
1
1
1
1
1
1
1
1
1
1
1
1
1
1
1
1
1
1
1
1
1
1
1
1
1
2.03376
2.66146
2.67912
2.68207
2.68488
2.68728
2.68954
2.69186
2.69435
2.69682
2.69909
2.70115
2.70309
2.70486
2.70645
2.708
2.70976
2.71179
2.71392
2.71601
2.718
2.71974
2.72099
2.7219
2.72298
2.72454
2.7266
2.72897
2.73124
2.73294
2.73386
2.73423
2.73444
2.73548
2.73759
2.74002
2.74253
2.74473
2.74624
2.74691
2.74716
2.74762
2.74894
2.75116
2.75372
2.75583
2.75684
2.75685
2.75674
2.75737
2.75934
2.7621
2.76465
2.76609
2.76634
2.76619
2.76628
2.76753
2.76996
2.77249
2.77402
2.77429
2.77398
2.77376
2.7745
2.77671
2.77952
2.78145
2.78192
2.78145
2.78083
2.78085
2.782
2.78409
2.786
2.78685
2.78675
2.78652
2.78661
2.78736
2.78849
2.78913
2.789
2.7885
2.78816
2.78839
2.78951
2.79105
2.79237
2.79328
2.79381
2.79405
2.79439
1
1
1
1
1
1
1
1
1
1
1
1
1
1
1
1
1
1
1
1
1
1
1
1
1
1
1
1
1
1
1
1
1
1
1
1
1
1
1
1
1
1
1
1
1
1
1
1
1
1
1
1
1
1
1
1
1
1
1
1
1
1
1
1
1
1
1
1
1
1
1
1
1
1
1
1
1
1
1
1
1
1
1
1
1
1
1
1
1
1
1
1
1
1
1
1
1
1
1
1.94254
2.64785
2.67493
2.67809
2.68142
2.68438
2.68731
2.69039
2.69362
2.69658
2.69905
2.70103
2.7027
2.70424
2.70571
2.70735
2.70938
2.71165
2.71387
2.71588
2.71762
2.71899
2.72003
2.72114
2.72278
2.72486
2.72714
2.72929
2.73091
2.73178
2.73221
2.73269
2.73366
2.73553
2.73789
2.74016
2.74227
2.744
2.74511
2.74567
2.74615
2.74706
2.74869
2.75077
2.75285
2.75438
2.75511
2.75531
2.75571
2.75694
2.75904
2.76139
2.76332
2.76438
2.7647
2.76485
2.76549
2.76715
2.76946
2.7715
2.77255
2.77264
2.77245
2.77254
2.77375
2.77617
2.77876
2.78026
2.78039
2.77988
2.77937
2.77969
2.78122
2.78345
2.78509
2.78554
2.78532
2.78512
2.78545
2.78656
2.7877
2.78809
2.78768
2.78708
2.7869
2.78739
2.78872
2.79014
2.79117
2.79187
2.79242
2.79291
2.79351
1
1
1
1
1
1
1
1
1
1
1
1
1
1
1
1
1
1
1
1
1
1
1
1
1
1
1
1
1
1
1
1
1
1
1
1
1
1
1
1
1
1
1
1
1
1
1
1
1
1
1
1
1
1
1
1
1
1
1
1
1
1
1
1
1
1
1
1
1
1
1
1
1
1
1
1
1
1
1
1
1
1
1
1
1
1
1
1
1
1
1
1
1
1
1
1
1
1
1
1.84301
2.63034
2.67168
2.67367
2.67664
2.67988
2.68361
2.6877
2.69182
2.69543
2.69822
2.70021
2.70171
2.70309
2.70453
2.70628
2.70846
2.71084
2.71309
2.71503
2.71667
2.71809
2.71937
2.721
2.72309
2.72534
2.72736
2.72888
2.72964
2.72994
2.73047
2.73175
2.73372
2.73617
2.73859
2.74043
2.74191
2.74292
2.74354
2.74423
2.74536
2.74692
2.74871
2.7504
2.75174
2.7526
2.75314
2.75378
2.75501
2.75685
2.75883
2.76055
2.76175
2.76245
2.76295
2.76365
2.76496
2.76685
2.76879
2.7702
2.77081
2.77089
2.77096
2.77154
2.77318
2.77557
2.77773
2.77881
2.77876
2.7783
2.77801
2.77865
2.78045
2.78265
2.78397
2.78409
2.78381
2.78373
2.78435
2.78574
2.7868
2.78689
2.78625
2.78559
2.78562
2.78644
2.7879
2.78913
2.78986
2.79035
2.79095
2.79173
2.7926
1
1
1
1
1
1
1
1
1
1
1
1
1
1
1
1
1
1
1
1
1
1
1
1
1
1
1
1
1
1
1
1
1
1
1
1
1
1
1
1
1
1
1
1
1
1
1
1
1
1
1
1
1
1
1
1
1
1
1
1
1
1
1
1
1
1
1
1
1
1
1
1
1
1
1
1
1
1
1
1
1
1
1
1
1
1
1
1
1
1
1
1
1
1
1
1
1
1
1
1.73518
2.60692
2.67042
2.67027
2.67228
2.67525
2.67927
2.68397
2.68887
2.69317
2.69636
2.69855
2.70006
2.7014
2.70282
2.7046
2.70676
2.7091
2.71135
2.71338
2.71526
2.71711
2.71898
2.72113
2.72344
2.72544
2.72687
2.72756
2.72771
2.72802
2.72929
2.73157
2.73431
2.73705
2.73931
2.74062
2.74121
2.74143
2.74173
2.7429
2.74483
2.74688
2.74866
2.74985
2.75045
2.75073
2.75122
2.75249
2.75453
2.75671
2.75843
2.75949
2.76006
2.76051
2.76126
2.76262
2.76451
2.76642
2.76788
2.76866
2.76894
2.76913
2.76958
2.77071
2.77264
2.7748
2.77646
2.77716
2.77704
2.77674
2.77672
2.77769
2.77966
2.78164
2.78264
2.78255
2.78225
2.78236
2.78331
2.78483
2.78575
2.78555
2.7847
2.78406
2.78435
2.78551
2.78703
2.788
2.78844
2.78873
2.78941
2.79052
2.79165
1
1
1
1
1
1
1
1
1
1
1
1
1
1
1
1
1
1
1
1
1
1
1
1
1
1
1
1
1
1
1
1
1
1
1
1
1
1
1
1
1
1
1
1
1
1
1
1
1
1
1
1
1
1
1
1
1
1
1
1
1
1
1
1
1
1
1
1
1
1
1
1
1
1
1
1
1
1
1
1
1
1
1
1
1
1
1
1
1
1
1
1
1
1
1
1
1
1
1
1.61608
2.57414
2.67013
2.669
2.66995
2.67197
2.67554
2.68019
2.68527
2.68992
2.69349
2.69597
2.69772
2.69921
2.70071
2.70244
2.70445
2.70661
2.70879
2.71101
2.71331
2.71576
2.71831
2.7209
2.7232
2.72481
2.72559
2.72584
2.72599
2.72685
2.72891
2.73171
2.73474
2.73747
2.73926
2.73992
2.73996
2.73997
2.74052
2.74221
2.74451
2.74673
2.7483
2.74894
2.749
2.74903
2.74976
2.75166
2.75413
2.75631
2.75767
2.7582
2.75836
2.75871
2.75981
2.76173
2.76395
2.76572
2.76669
2.76699
2.76708
2.76743
2.76833
2.76996
2.77197
2.7738
2.77498
2.7754
2.77532
2.7752
2.7755
2.77679
2.77878
2.78046
2.78111
2.78093
2.78068
2.78103
2.78228
2.78382
2.78451
2.78406
2.78309
2.78254
2.78309
2.78457
2.78607
2.78673
2.78692
2.78705
2.78784
2.78925
2.79061
1
1
1
1
1
1
1
1
1
1
1
1
1
1
1
1
1
1
1
1
1
1
1
1
1
1
1
1
1
1
1
1
1
1
1
1
1
1
1
1
1
1
1
1
1
1
1
1
1
1
1
1
1
1
1
1
1
1
1
1
1
1
1
1
1
1
1
1
1
1
1
1
1
1
1
1
1
1
1
1
1
1
1
1
1
1
1
1
1
1
1
1
1
1
1
1
1
1
1
1.48307
2.52862
2.66911
2.66819
2.66921
2.67067
2.67349
2.67728
2.68157
2.68582
2.68949
2.69239
2.69459
2.69642
2.69814
2.69994
2.7018
2.70373
2.7058
2.70813
2.7108
2.71379
2.71688
2.71976
2.72197
2.72327
2.72387
2.72423
2.72486
2.72639
2.72884
2.73166
2.7345
2.73681
2.73803
2.7384
2.73866
2.73917
2.74029
2.74219
2.74436
2.74619
2.74718
2.74741
2.74738
2.7477
2.74902
2.75125
2.75364
2.75552
2.7565
2.75671
2.75674
2.75721
2.75866
2.76089
2.76313
2.76465
2.76526
2.76525
2.76531
2.76589
2.76724
2.76917
2.77109
2.77255
2.77335
2.77358
2.77359
2.77368
2.77435
2.77589
2.77778
2.77909
2.77944
2.77924
2.7791
2.77972
2.78123
2.78267
2.78309
2.78243
2.78142
2.78104
2.78184
2.78357
2.78496
2.78533
2.78531
2.78534
2.78625
2.78793
2.78946
1
1
1
1
1
1
1
1
1
1
1
1
1
1
1
1
1
1
1
1
1
1
1
1
1
1
1
1
1
1
1
1
1
1
1
1
1
1
1
1
1
1
1
1
1
1
1
1
1
1
1
1
1
1
1
1
1
1
1
1
1
1
1
1
1
1
1
1
1
1
1
1
1
1
1
1
1
1
1
1
1
1
1
1
1
1
1
1
1
1
1
1
1
1
1
1
1
1
1
1.33895
2.47139
2.6695
2.66808
2.66907
2.67018
2.67246
2.67538
2.67872
2.68229
2.68575
2.68872
2.6912
2.69338