/*--------------------------------*- C++ -*----------------------------------*\
  =========                 |
  \\      /  F ield         | OpenFOAM: The Open Source CFD Toolbox
   \\    /   O peration     | Website:  https://openfoam.org
    \\  /    A nd           | Version:  7
     \\/     M anipulation  |
\*---------------------------------------------------------------------------*/
FoamFile
{
    version     2.0;
    format      ascii;
    class       volScalarField;
    location    "3.1";
    object      T;
}
// * * * * * * * * * * * * * * * * * * * * * * * * * * * * * * * * * * * * * //

dimensions      [0 0 0 1 0 0 0];

internalField   nonuniform List<scalar> 
4032
(
1
1
1
1
1
1
1
1
1
1
1
1.06566
2.33651
2.71944
2.73124
2.74521
2.75692
2.76758
2.77814
2.78955
2.8018
2.81295
2.82133
2.8264
1
1
1
1
1
1
1
1
1
1
1
1.0433
2.31816
2.71625
2.72928
2.74333
2.75514
2.76567
2.77596
2.78692
2.79859
2.80908
2.81681
2.82149
1
1
1
1
1
1
1
1
1
1
1
1.00262
2.27314
2.7112
2.7261
2.74023
2.75206
2.76227
2.77212
2.78254
2.79366
2.80373
2.81104
2.81578
1
1
1
1
1
1
1
1
1
1
1
1.00002
2.20789
2.70203
2.72115
2.73525
2.74719
2.75703
2.76636
2.77609
2.78637
2.79536
2.80132
2.8047
1
1
1
1
1
1
1
1
1
1
1
1
2.11493
2.68694
2.71506
2.72871
2.74052
2.74964
2.7578
2.76586
2.77422
2.78156
2.78633
2.79061
1
1
1
1
1
1
1
1
1
1
1
1
1.98601
2.65913
2.70379
2.71799
2.73018
2.73887
2.74616
2.75331
2.76061
2.76608
2.76685
2.76277
1
1
1
1
1
1
1
1
1
1
1
1
1.81282
2.60792
2.68522
2.70345
2.71747
2.72615
2.73198
2.73683
2.73962
2.73717
2.73114
2.72526
1
1
1
1
1
1
1
1
1
1
1
1
1.56805
2.51341
2.65655
2.68227
2.69918
2.709
2.71437
2.71656
2.71425
2.70963
2.70552
2.71623
1
1
1
1
1
1
1
1
1
1
1
1
1.22928
2.38028
2.63258
2.65196
2.67088
2.68365
2.68918
2.68935
2.68226
2.6651
2.61556
2.51597
1
1
1
1
1
1
1
1
1
1
1
1
1.01506
2.25978
2.61973
2.61775
2.63223
2.64774
2.65516
2.6541
2.64323
2.61266
2.55765
2.39592
1
1
1
1
1
1
1
1
1
1
1
1
1.00003
2.03939
2.58607
2.60294
2.61264
2.61759
2.62004
2.61592
2.60188
2.5654
2.50291
2.32211
1
1
1
1
1
1
1
1
1
1
1
1
1
1.66201
2.48954
2.58372
2.58905
2.59125
2.5887
2.57902
2.55947
2.52248
2.45097
2.2919
1
1
1
1
1
1
1
1
1
1
1
1
1
1.16549
2.32682
2.58
2.56884
2.56577
2.55903
2.5442
2.51978
2.48228
2.40783
2.28975
1
1
1
1
1
1
1
1
1
1
1
1
1
1.00731
2.14344
2.5194
2.53572
2.53705
2.52945
2.51284
2.48677
2.44424
2.37579
2.28541
1
1
1
1
1
1
1
1
1
1
1
1
1
0.999977
1.70552
2.41164
2.51441
2.51379
2.50552
2.48721
2.46037
2.4159
2.3553
2.28157
1
1
1
1
1
1
1
1
1
1
1
1
1
0.999992
1.14002
2.23444
2.49477
2.48658
2.47767
2.45968
2.43388
2.39202
2.33919
2.27621
1
1
1
1
1
1
1
1
1
1
1
1
1
0.999999
1.00464
1.96982
2.41981
2.45271
2.44605
2.43197
2.40814
2.37217
2.32634
2.27152
1
1
1
1
1
1
1
1
1
1
1
1
1
1
0.999989
1.37371
2.25992
2.42862
2.41436
2.40198
2.38101
2.35068
2.31126
2.26404
1
1
1
1
1
1
1
1
1
1
1
1
1
1
0.999996
1.03354
2.05374
2.38672
2.37413
2.3654
2.34901
2.32478
2.29252
2.25399
1
1
1
1
1
1
1
1
1
1
1
1
1
1
0.999999
1.00019
1.49836
2.24082
2.35394
2.33884
2.32193
2.30144
2.27534
2.24341
1
1
1
1
1
1
1
1
1
1
1
1
1
1
1
1
1.06353
2.02439
2.32865
2.31303
2.29558
2.2755
2.25262
2.22538
1
1
1
1
1
1
1
1
1
1
1
1
1
1
1
1
1.0008
1.44797
2.16479
2.29109
2.27118
2.25259
2.23133
2.20667
1
1
1
1
1
1
1
1
1
1
1
1
1
1
1
1
1
1.05199
1.92351
2.26544
2.24993
2.2311
2.20963
2.18632
1
1
1
1
1
1
1
1
1
1
1
1
1
1
1
1
1
1.00061
1.35117
2.08293
2.22924
2.20702
2.18877
2.1684
1
1
1
1
1
1
1
1
1
1
1
1
1
1
1
1
1
1
1.02939
1.72619
2.16767
2.18712
2.17214
2.15459
1
1
1
1
1
1
1
1
1
1
1
1
1
1
1
1
1
1
1.0003
1.19064
1.94761
2.16793
2.15126
2.1354
1
1
1
1
1
1
1
1
1
1
1
1
1
1
1
1
1
1
1
1.00825
1.46187
2.0236
2.13378
2.11465
1
1
1
1
1
1
1
1
1
1
1
1
1
1
1
1
1
1
1
1.00006
1.06088
1.71282
2.06379
2.10327
1
1
1
1
1
1
1
1
1
1
1
1
1
1
1
1
1
1
1
1
1.00112
1.20512
1.84235
2.07265
1
1
1
1
1
1
1
1
1
1
1
1
1
1
1
1
1
1
1
1
1.00001
1.01019
1.37875
1.9122
1
1
1
1
1
1
1
1
1
1
1
1
1
1
1
1
1
1
1
1
1
1.00009
1.04147
1.53986
1
1
1
1
1
1
1
1
1
1
1
1
1
1
1
1
1
1
1
1
1
1
1.0007
1.10647
1
1
1
1
1
1
1
1
1
1
1
1
1
1
1
1
1
1
1
1
1
1
1
1.00331
1
1
1
1
1
1
1
1
1
1
1
1
1
1
1
1
1
1
1
1
1
1
1
1.00002
1
1
1
1
1
1
1
1
1
1
1
1
1
1
1
1
1
1
1
1
1
1
1
1
1
1
1
1
1
1
1
1
1
1
1
1
1
1
1
1
1
1
1
1
1
1
1
1
1
1
1
1
1
1
1
1
1
1
1
1
1
1
1
1
1
1
1
1
1
1
1
1
1
1
1
1
1
1
1
1
1
1
1
1
1
1
1
1
1
1
1
1
1
1
1
1
1
1
1
1
1
1
1
1
1
1
1
1
1
1
1
1
1
1
1
1
1
1
1
1
1
1
1
1
1
1
1
1
1
1
1
1
1
1
1
1
1
1
1
1
1
1
1
1
1.6913
1.15658
0.91426
0.987482
1.18065
1.29608
1.40936
1.49286
1.52539
1.54026
1.57046
1.64571
1.72621
1.74496
1.74089
1.73084
1.73004
1.73418
1.73483
1.71512
1.68874
1.68915
1.6985
1.71358
1.7232
1.72218
1.71644
1.70151
1.68609
1.68428
1.68745
1.69561
2.48246
2.88582
2.85516
2.8179
2.79075
2.76696
2.74843
2.72892
2.70872
2.68695
2.66281
2.6371
2.61111
2.58786
2.5682
2.55208
2.53948
2.52898
2.51624
2.49492
2.46908
2.44303
2.42102
2.4044
2.39471
2.38993
2.38164
2.36776
2.34986
2.3273
2.30437
2.28505
2.26906
2.25921
2.25539
2.25022
2.24226
2.23231
2.21622
2.19395
2.17453
2.15992
2.14781
2.13878
2.13181
2.12339
2.11453
2.10173
2.08326
2.06828
2.05904
2.05059
2.04384
2.03999
2.03118
2.02155
2.01053
1.99352
1.9723
1.95805
1.95182
1.94794
1.94541
1.94053
1.93371
1.67269
1.40567
1.29925
1.32236
1.32263
1.32614
1.29926
1.29158
1.31405
1.36257
1.42935
1.48682
1.52457
1.55708
1.58077
1.60489
1.63506
1.65091
1.64712
1.63961
1.64273
1.65414
1.67027
1.67981
1.68028
1.67634
1.66604
1.65641
1.65564
1.65799
1.67835
2.35635
2.82268
2.78459
2.74325
2.72539
2.70837
2.69198
2.67126
2.64947
2.62927
2.6128
2.6002
2.58456
2.56369
2.54204
2.52199
2.50472
2.49142
2.48264
2.47245
2.45575
2.43541
2.41374
2.3933
2.37768
2.36652
2.35821
2.35032
2.33807
2.32236
2.30226
2.28035
2.26261
2.2495
2.23972
2.23183
2.2252
2.21762
2.20666
2.19341
2.17662
2.15795
2.14237
2.13108
2.12186
2.11472
2.10738
2.0976
2.08411
2.06861
2.05576
2.04622
2.0374
2.02882
2.02053
2.01143
2.00173
1.98991
1.97618
1.96231
1.95177
1.94592
1.94278
1.93495
2.03768
1.85524
1.68777
1.53582
1.46388
1.40528
1.34037
1.30169
1.25221
1.24918
1.27599
1.31812
1.33372
1.34621
1.37577
1.41985
1.45696
1.49372
1.5248
1.55464
1.57049
1.57859
1.58637
1.60045
1.60917
1.60939
1.60558
1.5969
1.59176
1.59363
1.61562
1.69431
2.10976
2.60339
2.64648
2.60561
2.58473
2.58266
2.57818
2.5669
2.55062
2.53136
2.51551
2.50633
2.5022
2.49397
2.48085
2.46528
2.44541
2.42693
2.41413
2.40542
2.3981
2.38859
2.37515
2.36017
2.34252
2.32262
2.30872
2.30087
2.29441
2.28775
2.27788
2.26453
2.24772
2.2275
2.20878
2.19675
2.18736
2.17934
2.17456
2.17049
2.1625
2.15104
2.13383
2.1146
2.10201
2.09304
2.08427
2.07704
2.06999
2.06162
2.04907
2.03278
2.01906
2.00871
1.99881
1.98905
1.97956
1.97212
1.96735
1.96255
1.95379
1.94085
1.93194
1.92229
2.10166
1.94714
1.81609
1.70438
1.60998
1.52326
1.4509
1.41412
1.37015
1.32323
1.31322
1.29914
1.27841
1.27402
1.2837
1.30535
1.3425
1.38053
1.41074
1.44735
1.47787
1.4913
1.50353
1.52052
1.54023
1.54955
1.55073
1.54604
1.54113
1.54945
1.63029
1.82611
1.97053
2.2495
2.43987
2.46472
2.48014
2.47345
2.4633
2.45167
2.44321
2.4298
2.41635
2.40914
2.40394
2.39943
2.39146
2.3808
2.36806
2.35106
2.33601
2.32798
2.32152
2.3159
2.30809
2.29692
2.28434
2.26825
2.2503
2.2397
2.2351
2.23114
2.22706
2.22062
2.20981
2.19432
2.17304
2.1535
2.14193
2.13494
2.13096
2.12918
2.12644
2.12115
2.11189
2.09418
2.07302
2.06045
2.05315
2.04751
2.04317
2.03797
2.02996
2.01644
1.99702
1.98043
1.96816
1.95767
1.95021
1.94667
1.94596
1.94503
1.94211
1.93394
1.91951
1.90246
2.15528
2.0313
1.90453
1.80699
1.72524
1.63384
1.55853
1.51505
1.47137
1.4179
1.37916
1.35196
1.3253
1.29457
1.28296
1.28693
1.29426
1.30833
1.32741
1.35928
1.39612
1.42147
1.43984
1.46298
1.48451
1.49513
1.50201
1.50291
1.51265
1.5801
1.77926
1.9675
1.98802
2.03173
2.18565
2.31864
2.3826
2.4132
2.4129
2.40004
2.38542
2.37182
2.35583
2.34491
2.33878
2.33378
2.32973
2.32103
2.31107
2.29884
2.28283
2.26994
2.26209
2.25495
2.24756
2.23839
2.22865
2.21759
2.20282
2.18818
2.18064
2.17705
2.17321
2.16808
2.16054
2.149
2.1317
2.11221
2.09984
2.09314
2.08899
2.08645
2.08317
2.0797
2.07435
2.06257
2.04235
2.02646
2.01993
2.01509
2.01122
2.00651
2.00024
1.99008
1.97087
1.94903
1.93576
1.92755
1.92191
1.91964
1.91873
1.91776
1.91692
1.91428
1.904
1.87954
2.18409
2.08383
1.98013
1.88573
1.80435
1.72276
1.65083
1.60151
1.55519
1.50745
1.46014
1.42145
1.40003
1.37662
1.3483
1.32357
1.3095
1.30919
1.30632
1.30962
1.31947
1.33614
1.35594
1.38396
1.41634
1.44492
1.46553
1.48032
1.55392
1.76087
1.93028
2.0022
2.00961
2.00619
2.02241
2.12054
2.26005
2.34395
2.37379
2.37543
2.36241
2.34715
2.33064
2.31287
2.3025
2.29577
2.29278
2.28709
2.27731
2.26705
2.25408
2.23748
2.22218
2.21174
2.2036
2.19595
2.18806
2.17986
2.1697
2.15595
2.14153
2.13308
2.12859
2.12397
2.11813
2.11032
2.10042
2.08826
2.07407
2.06194
2.05406
2.04821
2.04367
2.04042
2.03646
2.02926
2.01733
2.00184
1.98978
1.98372
1.97874
1.97375
1.96804
1.95931
1.94304
1.92124
1.90717
1.89986
1.89422
1.89122
1.88961
1.88853
1.88833
1.88767
1.88155
1.85571
2.20207
2.1154
2.02819
1.94967
1.87174
1.79272
1.73011
1.67533
1.62124
1.57812
1.54404
1.49547
1.44688
1.42686
1.40687
1.38111
1.3522
1.32954
1.31388
1.31015
1.31452
1.31549
1.31497
1.31825
1.33398
1.36455
1.40608
1.48156
1.69751
1.90894
1.97127
1.99835
1.99857
1.99453
1.98415
1.99505
2.06764
2.20327
2.3082
2.33547
2.34326
2.33317
2.3205
2.30366
2.2865
2.2758
2.26788
2.26296
2.25621
2.24642
2.23547
2.2222
2.20581
2.18848
2.17581
2.16774
2.16118
2.15383
2.14604
2.13651
2.12299
2.1075
2.0971
2.09124
2.08623
2.08134
2.07576
2.06883
2.05908
2.0458
2.03183
2.02176
2.0161
2.01187
2.00638
2.00013
1.99368
1.98523
1.97181
1.9582
1.95155
1.94669
1.93987
1.93065
1.91824
1.90422
1.89066
1.8802
1.87362
1.8698
1.86834
1.86657
1.86501
1.86253
1.8555
1.83222
2.20875
2.13345
2.06104
1.99247
1.91946
1.84806
1.79377
1.73903
1.68178
1.63481
1.60353
1.56308
1.51662
1.47836
1.45861
1.43895
1.41563
1.38684
1.35767
1.34383
1.33984
1.33298
1.32229
1.31272
1.31182
1.31806
1.36425
1.57814
1.80352
1.89878
1.93181
1.94358
1.95184
1.95701
1.96238
1.96244
1.96397
2.00763
2.14152
2.24989
2.30069
2.31275
2.3057
2.29429
2.28013
2.26617
2.25222
2.2416
2.23236
2.22494
2.21717
2.20775
2.197
2.18176
2.16238
2.1469
2.13792
2.13133
2.12569
2.11927
2.11077
2.09771
2.08158
2.07018
2.06434
2.06025
2.05662
2.05154
2.04448
2.03498
2.02224
2.00666
1.99192
1.98275
1.97989
1.97805
1.97486
1.96879
1.95928
1.94536
1.93002
1.91833
1.90999
1.90221
1.8957
1.88975
1.88277
1.87262
1.86025
1.85101
1.84485
1.83948
1.83524
1.83155
1.82741
1.81289
2.2126
2.14743
2.08372
2.02271
1.95515
1.89375
1.84201
1.79131
1.73207
1.69008
1.65123
1.60991
1.57121
1.54147
1.50941
1.47898
1.4614
1.44562
1.41792
1.37617
1.35916
1.35367
1.3427
1.3279
1.32466
1.36065
1.53946
1.74707
1.81235
1.82505
1.8276
1.83964
1.86196
1.88591
1.90606
1.91362
1.9134
1.91749
1.95156
2.06192
2.18879
2.25398
2.27237
2.27379
2.26652
2.25732
2.24349
2.22409
2.20975
2.20083
2.19373
2.18969
2.18301
2.17247
2.15719
2.13536
2.1186
2.11085
2.10512
2.10063
2.09462
2.08704
2.07618
2.06068
2.0473
2.04032
2.0356
2.03203
2.02759
2.02078
2.01136
1.9967
1.97745
1.96406
1.95725
1.9529
1.94942
1.94634
1.94175
1.93295
1.91668
1.89847
1.88822
1.88329
1.87959
1.87625
1.87162
1.86437
1.85184
1.83586
1.82465
1.81781
1.81211
1.80637
1.80168
1.79363
2.21225
2.15622
2.09924
2.04357
1.98568
1.92984
1.87838
1.82876
1.77751
1.73637
1.69792
1.6537
1.61158
1.58781
1.56444
1.52697
1.49529
1.48519
1.46961
1.43761
1.40091
1.38792
1.37891
1.36849
1.39163
1.54313
1.75838
1.82537
1.81285
1.80235
1.79478
1.78646
1.78322
1.7876
1.79807
1.81461
1.83149
1.84536
1.85254
1.87912
1.96727
2.10863
2.19172
2.22724
2.24369
2.24267
2.23228
2.21435
2.19001
2.17534
2.16906
2.16558
2.16421
2.15754
2.14655
2.12925
2.10535
2.09118
2.08462
2.07913
2.07576
2.07153
2.06477
2.05392
2.03664
2.022
2.0142
2.0091
2.00533
2.00127
1.99441
1.98413
1.96973
1.95218
1.93831
1.9313
1.92779
1.92454
1.92041
1.9143
1.90383
1.88774
1.87393
1.86805
1.86443
1.86123
1.85715
1.85147
1.84178
1.82567
1.8091
1.79858
1.7922
1.78662
1.78261
1.77582
2.21011
2.16191
2.1131
2.06144
2.00649
1.95813
1.91194
1.86143
1.81359
1.77432
1.73606
1.69806
1.65725
1.62521
1.60123
1.57594
1.54352
1.51324
1.49808
1.47966
1.45177
1.42614
1.41123
1.4297
1.56026
1.77544
1.86086
1.85173
1.82835
1.80887
1.79334
1.7797
1.77047
1.76102
1.75106
1.7464
1.74974
1.75396
1.7588
1.76505
1.78032
1.85618
1.99604
2.11886
2.18383
2.21037
2.21308
2.20154
2.17961
2.15674
2.14595
2.14133
2.14066
2.13832
2.12991
2.11737
2.09901
2.0783
2.06552
2.05862
2.0554
2.05225
2.04666
2.03894
2.02721
2.01092
1.99592
1.98649
1.98072
1.97589
1.97077
1.96474
1.95646
1.94395
1.92792
1.91498
1.90779
1.90297
1.89834
1.89319
1.88686
1.87815
1.8667
1.855
1.84747
1.84319
1.83963
1.83522
1.828
1.81606
1.79917
1.78368
1.77468
1.7695
1.76653
1.76022
2.20517
2.16218
2.11905
2.07196
2.02358
1.97957
1.93479
1.88576
1.84589
1.80897
1.76937
1.72772
1.69682
1.66496
1.63208
1.60849
1.58518
1.55248
1.52408
1.5076
1.48933
1.4691
1.49002
1.62637
1.80949
1.89606
1.88813
1.869
1.84977
1.8354
1.8192
1.79933
1.77537
1.7534
1.74144
1.73164
1.72304
1.71799
1.71205
1.70389
1.69105
1.69171
1.7302
1.85408
2.00787
2.11191
2.16882
2.17239
2.16824
2.15174
2.13267
2.1192
2.11097
2.10507
2.10174
2.09708
2.08709
2.07385
2.05712
2.04128
2.03046
2.02428
2.02113
2.01763
2.01039
1.99915
1.98533
1.97025
1.95877
1.95238
1.9479
1.94291
1.93657
1.92846
1.91826
1.90512
1.89228
1.88349
1.87744
1.87222
1.86723
1.86226
1.85614
1.84684
1.83492
1.82483
1.81796
1.81299
1.8086
1.80232
1.79098
1.77539
1.76185
1.75404
1.75114
1.74531
2.19266
2.15693
2.1186
2.07662
2.03469
1.99534
1.95391
1.90921
1.87137
1.83526
1.79677
1.75836
1.72971
1.69955
1.66289
1.63456
1.61629
1.59246
1.5588
1.53241
1.51874
1.54518
1.69534
1.8877
1.94974
1.92962
1.90572
1.88555
1.87145
1.85552
1.83765
1.81906
1.79589
1.76884
1.74684
1.72881
1.7145
1.7044
1.69345
1.68529
1.67782
1.66546
1.64246
1.64436
1.7067
1.85138
1.9979
2.09303
2.13089
2.1353
2.12832
2.11055
2.09251
2.08057
2.07354
2.06918
2.06848
2.06059
2.04941
2.03347
2.01482
2.00255
1.99528
1.98946
1.98485
1.97982
1.97237
1.96246
1.94893
1.93542
1.92713
1.92216
1.91765
1.91218
1.90419
1.89343
1.88068
1.86788
1.85939
1.85437
1.85046
1.84669
1.84176
1.83402
1.82306
1.81032
1.79957
1.79246
1.7872
1.78199
1.77525
1.7654
1.75397
1.74245
1.73714
1.73095
2.17798
2.14775
2.11478
2.07753
2.04202
2.00597
1.96611
1.92707
1.8929
1.85782
1.81939
1.78389
1.75541
1.72687
1.69626
1.66371
1.63946
1.61626
1.59147
1.56784
1.59398
1.74328
1.94434
2.00522
1.99094
1.95414
1.91922
1.90015
1.8861
1.87004
1.85287
1.83632
1.81752
1.7918
1.76217
1.73922
1.7219
1.70481
1.68795
1.67477
1.66433
1.65376
1.64027
1.61903
1.5979
1.60914
1.6874
1.84485
1.98241
2.07315
2.09645
2.09703
2.08272
2.06179
2.05191
2.04588
2.0424
2.04175
2.03385
2.02308
2.00698
1.98626
1.97378
1.96771
1.9625
1.95772
1.95373
1.94814
1.94008
1.92644
1.91262
1.90329
1.89532
1.88749
1.88097
1.87533
1.86831
1.85837
1.84743
1.8383
1.83052
1.82374
1.81866
1.81377
1.8072
1.79779
1.78607
1.7749
1.76696
1.76165
1.75682
1.75137
1.74423
1.73417
1.7253
1.71601
2.16123
2.13465
2.10543
2.07419
2.04257
2.00928
1.97266
1.94022
1.90767
1.87313
1.83571
1.80757
1.77868
1.74764
1.71614
1.6917
1.66505
1.63921
1.61808
1.64767
1.79419
1.97762
2.04353
2.03029
2.00386
1.97479
1.93967
1.91281
1.8956
1.88009
1.86371
1.84691
1.82942
1.80822
1.77834
1.74788
1.72811
1.71177
1.69596
1.6808
1.66552
1.6511
1.63644
1.61589
1.59004
1.57694
1.56583
1.58585
1.68355
1.8446
1.9693
2.03595
2.04886
2.04741
2.03597
2.02416
2.02008
2.01598
2.01022
2.00384
1.99465
1.97665
1.95753
1.94857
1.94274
1.93826
1.93546
1.93094
1.92549
1.91584
1.89984
1.88463
1.87538
1.86887
1.86326
1.85746
1.85151
1.84468
1.83507
1.8228
1.81201
1.80491
1.79953
1.79405
1.7882
1.78151
1.77264
1.7612
1.75032
1.74306
1.73846
1.73472
1.73001
1.72375
1.71554
1.70175
2.14616
2.122
2.09524
2.0682
2.03983
2.00838
1.97609
1.9471
1.91652
1.88315
1.85012
1.82356
1.79555
1.76617
1.73648
1.7086
1.68424
1.67059
1.71389
1.87332
2.01684
2.06249
2.05679
2.03497
2.01519
1.99409
1.96377
1.92667
1.90286
1.88613
1.87013
1.85361
1.83699
1.81867
1.79399
1.76195
1.73529
1.71674
1.70085
1.68576
1.67072
1.65556
1.63921
1.61883
1.59253
1.56791
1.55402
1.54604
1.54062
1.56872
1.67601
1.82649
1.93204
1.98688
2.00224
2.00083
1.99746
1.99132
1.9846
1.97776
1.97087
1.95964
1.94501
1.9344
1.92721
1.92121
1.91546
1.90999
1.90509
1.89875
1.88554
1.86745
1.85715
1.85164
1.84659
1.84168
1.83657
1.83017
1.82032
1.8059
1.79429
1.78771
1.78221
1.77687
1.77161
1.76588
1.75855
1.74771
1.73505
1.72913
1.72711
1.72423
1.71979
1.71401
1.70574
1.68906
2.13394
2.11037
2.0856
2.06048
2.03387
2.00421
1.9764
1.94895
1.92044
1.88832
1.86192
1.83582
1.80866
1.77878
1.7491
1.72408
1.71513
1.77352
1.95885
2.10274
2.10491
2.0817
2.05661
2.03963
2.02491
2.00446
1.97828
1.94273
1.91059
1.89062
1.87333
1.85621
1.839
1.82088
1.80017
1.77371
1.74417
1.72158
1.70447
1.68833
1.67233
1.65685
1.64122
1.62385
1.60208
1.57552
1.55271
1.53696
1.52457
1.51554
1.51411
1.54822
1.66206
1.79288
1.90136
1.9385
1.95342
1.96729
1.96116
1.95287
1.94272
1.93087
1.9205
1.91411
1.90857
1.90234
1.89519
1.88817
1.88158
1.87427
1.86336
1.84772
1.83737
1.83277
1.82891
1.82543
1.82162
1.81629
1.80669
1.79033
1.77611
1.76911
1.76414
1.75981
1.75575
1.75121
1.74514
1.73598
1.72442
1.7147
1.70838
1.70377
1.6991
1.69334
1.68701
1.67485
2.1172
2.09606
2.0741
2.05087
2.02567
1.99954
1.97522
1.94888
1.92128
1.89351
1.87007
1.84362
1.81751
1.78661
1.75781
1.75921
1.83209
2.01278
2.15476
2.15576
2.126
2.08353
2.05792
2.04182
2.02676
2.00583
1.98277
1.95517
1.92287
1.8954
1.87515
1.85692
1.83869
1.82005
1.80082
1.77958
1.75458
1.72856
1.70732
1.68999
1.674
1.65821
1.64162
1.62397
1.60409
1.58169
1.55866
1.5379
1.52175
1.50727
1.49497
1.48567
1.4885
1.52587
1.63677
1.75813
1.84763
1.90332
1.92115
1.92091
1.91391
1.90302
1.89221
1.88458
1.88061
1.8772
1.87205
1.8655
1.85764
1.84868
1.8377
1.82307
1.81342
1.80995
1.80718
1.80492
1.80274
1.79972
1.79266
1.77684
1.75963
1.75143
1.74665
1.74237
1.73853
1.73491
1.73039
1.72362
1.71362
1.70133
1.69199
1.68631
1.68154
1.67612
1.66998
1.65772
2.09675
2.07981
2.06132
2.04057
2.01742
1.99572
1.9726
1.94812
1.92049
1.89801
1.87272
1.84894
1.81954
1.79369
1.80081
1.8969
2.06444
2.17846
2.19138
2.17089
2.13685
2.09595
2.06253
2.04273
2.02531
2.0053
1.98387
1.96093
1.93418
1.90395
1.87693
1.85557
1.83622
1.81728
1.79858
1.77945
1.75822
1.73433
1.71048
1.68943
1.67084
1.65341
1.6362
1.61916
1.60127
1.58175
1.56097
1.54167
1.52565
1.5103
1.49675
1.48129
1.46878
1.45611
1.45663
1.49719
1.59809
1.72787
1.81317
1.85837
1.87679
1.87808
1.87019
1.85747
1.84689
1.84469
1.84228
1.83788
1.83148
1.82378
1.81435
1.80165
1.78959
1.78478
1.78241
1.78079
1.77981
1.77829
1.77316
1.76102
1.7444
1.73349
1.72874
1.72522
1.72133
1.71753
1.71364
1.70882
1.70164
1.69085
1.67884
1.66996
1.66398
1.65806
1.65175
1.64075
2.08539
2.06769
2.05039
2.03116
2.01074
1.99044
1.96882
1.9448
1.92093
1.89791
1.87327
1.84907
1.82564
1.84796
1.98415
2.14616
2.20648
2.20106
2.18226
2.16249
2.13838
2.10848
2.07291
2.04381
2.02275
2.00368
1.98316
1.96127
1.93726
1.90996
1.88151
1.85599
1.83392
1.81344
1.79384
1.77471
1.75513
1.73403
1.71166
1.69027
1.67045
1.65147
1.6326
1.61394
1.59503
1.57554
1.55565
1.53707
1.52184
1.50932
1.49825
1.48559
1.47101
1.45609
1.44177
1.42513
1.42734
1.47585
1.58293
1.6949
1.78531
1.82556
1.834
1.8282
1.81921
1.80998
1.80566
1.80249
1.79956
1.79445
1.78792
1.78152
1.77327
1.76338
1.75694
1.75326
1.75049
1.74829
1.74585
1.74059
1.731
1.71873
1.70944
1.70605
1.70447
1.70336
1.70142
1.69721
1.69007
1.67879
1.66553
1.65473
1.64811
1.64193
1.63508
1.62459
2.06858
2.05321
2.03675
2.01887
2.00148
1.98256
1.9622
1.93905
1.91909
1.89443
1.87466
1.85705
1.89791
2.04773
2.22445
2.26464
2.23565
2.19783
2.16816
2.15128
2.13544
2.11154
2.08207
2.04954
2.02166
1.99959
1.97874
1.95698
1.93385
1.90901
1.88257
1.8565
1.83248
1.81014
1.78866
1.76768
1.74684
1.72565
1.70397
1.68282
1.66333
1.64554
1.62834
1.6109
1.59265
1.57355
1.55408
1.53515
1.51781
1.50296
1.49101
1.48099
1.47194
1.46026
1.44477
1.42882
1.41281
1.40299
1.41088
1.45883
1.56986
1.68183
1.76402
1.78048
1.78087
1.7778
1.77461
1.77431
1.77192
1.76795
1.76561
1.76233
1.75546
1.74444
1.73495
1.72873
1.72444
1.72107
1.71775
1.71478
1.71117
1.70411
1.69536
1.68949
1.68524
1.68127
1.67738
1.67286
1.66718
1.6616
1.65389
1.64346
1.63396
1.62563
1.61976
1.61329
2.04629
2.03669
2.01936
2.00434
1.98883
1.97295
1.95201
1.93468
1.91312
1.89466
1.89588
1.96433
2.12426
2.24728
2.28423
2.26478
2.23137
2.19571
2.16557
2.14659
2.13075
2.10899
2.08311
2.05365
2.02233
1.99443
1.97072
1.94802
1.92507
1.90184
1.87812
1.85383
1.82935
1.80544
1.78235
1.76007
1.73843
1.71725
1.6962
1.67526
1.65524
1.63719
1.62075
1.60494
1.58926
1.57304
1.5556
1.53805
1.52132
1.50619
1.49253
1.47941
1.46703
1.45487
1.44511
1.43461
1.41996
1.40471
1.39318
1.38667
1.3989
1.45299
1.56112
1.64985
1.72195
1.74771
1.74933
1.75521
1.75266
1.74743
1.74216
1.73459
1.72872
1.72522
1.71826
1.70892
1.70134
1.69695
1.69427
1.69251
1.68969
1.68487
1.67957
1.67345
1.66629
1.66042
1.65617
1.65223
1.64812
1.64192
1.63097
1.6191
1.61144
1.60651
1.60561
1.60272
1.94117
2.02283
2.00606
1.98796
1.97566
1.96034
1.94073
1.92623
1.91488
1.93886
2.04634
2.21403
2.28495
2.29886
2.27997
2.25142
2.22751
2.19996
2.16808
2.14185
2.12005
2.09849
2.07445
2.04833
2.01983
1.98996
1.96181
1.93643
1.9126
1.88959
1.86705
1.84435
1.82122
1.79783
1.77464
1.7523
1.73102
1.71067
1.69091
1.67133
1.65189
1.63328
1.61612
1.59978
1.58381
1.56859
1.55383
1.53907
1.52434
1.51049
1.49726
1.48397
1.47075
1.45707
1.4437
1.431
1.42274
1.41356
1.39877
1.38506
1.37716
1.37491
1.38976
1.44273
1.54081
1.63426
1.69589
1.72841
1.73857
1.73888
1.73457
1.72345
1.71325
1.70477
1.69504
1.68621
1.68139
1.68017
1.68054
1.68064
1.67869
1.67248
1.66031
1.64892
1.64556
1.64373
1.64136
1.63806
1.63317
1.62496
1.61193
1.59936
1.5929
1.59242
1.59258
1.5903
1.66453
1.94592
1.99815
1.98026
1.96408
1.94341
1.92995
1.93351
1.99275
2.13253
2.27133
2.31672
2.29236
2.27602
2.25762
2.23851
2.21985
2.19572
2.16303
2.13226
2.10696
2.0834
2.05965
2.03499
2.00853
1.98002
1.95133
1.92482
1.90081
1.87839
1.85674
1.83517
1.81325
1.79079
1.76807
1.74599
1.72521
1.70574
1.68735
1.66965
1.65163
1.63327
1.61602
1.59984
1.58352
1.56755
1.5532
1.54056
1.52816
1.51577
1.50327
1.49058
1.47756
1.46388
1.45071
1.43792
1.42582
1.4132
1.40204
1.39313
1.38169
1.37142
1.36594
1.36175
1.37629
1.44169
1.53627
1.63187
1.6828
1.71742
1.71897
1.71792
1.71346
1.7018
1.68609
1.67749
1.67345
1.67032
1.6676
1.66384
1.65751
1.64867
1.63968
1.63238
1.62684
1.62266
1.61938
1.61541
1.60939
1.60025
1.59088
1.58784
1.58633
1.5852
1.58326
1.58172
1.20193
1.73368
1.94496
1.97279
1.95505
1.93678
1.95898
2.06742
2.21206
2.29809
2.32786
2.30785
2.27522
2.24766
2.2332
2.22015
2.2021
2.17806
2.14705
2.11661
2.09198
2.06901
2.04564
2.02156
1.99627
1.96924
1.94142
1.9152
1.89181
1.87061
1.85051
1.83062
1.80997
1.78833
1.76617
1.74431
1.72343
1.70382
1.6856
1.66839
1.65166
1.63519
1.6189
1.60341
1.58899
1.57479
1.56128
1.54966
1.53813
1.52586
1.51255
1.49887
1.48585
1.47371
1.46199
1.44947
1.4373
1.42592
1.41547
1.40363
1.39066
1.37782
1.36438
1.35754
1.35419
1.3558
1.37532
1.44658
1.54653
1.64258
1.67683
1.69408
1.69647
1.69022
1.68566
1.68212
1.67818
1.67275
1.66541
1.6567
1.64629
1.63323
1.62075
1.61424
1.61038
1.60671
1.60329
1.59925
1.59365
1.58499
1.57595
1.57153
1.57087
1.57131
1.57247
1.58141
1.01102
1.29806
1.77842
1.93363
1.93931
2.00646
2.15147
2.28153
2.3146
2.30656
2.30155
2.28386
2.26056
2.2344
2.21732
2.20369
2.18453
2.16055
2.13283
2.10478
2.08089
2.05913
2.03709
2.01415
1.98994
1.96405
1.93725
1.91175
1.88897
1.86849
1.84929
1.83036
1.81085
1.79028
1.76885
1.74765
1.72796
1.71022
1.69418
1.67939
1.66672
1.65432
1.63917
1.62189
1.60618
1.595
1.58624
1.5763
1.56482
1.55184
1.53752
1.52301
1.50917
1.49574
1.48217
1.46831
1.45562
1.44425
1.43324
1.42094
1.40786
1.39428
1.37703
1.36361
1.35698
1.35155
1.34875
1.35224
1.3808
1.45194
1.54645
1.63515
1.66857
1.6654
1.67085
1.67157
1.66862
1.6629
1.65431
1.64282
1.63139
1.61939
1.60924
1.60326
1.59809
1.59342
1.58876
1.58387
1.5777
1.56935
1.56204
1.5587
1.55977
1.56398
1.57955
1.65643
1.00011
1.02684
1.39508
1.74904
2.01249
2.25914
2.33057
2.35619
2.33439
2.31248
2.29356
2.28135
2.26003
2.23223
2.20984
2.1941
2.17506
2.15162
2.1264
2.10087
2.07776
2.05699
2.03614
2.01404
1.99031
1.96497
1.93901
1.91451
1.89278
1.87344
1.85537
1.83743
1.81885
1.79927
1.77905
1.75922
1.74065
1.7236
1.70794
1.69382
1.68057
1.66722
1.65392
1.64034
1.62689
1.6138
1.60056
1.58754
1.57396
1.55969
1.5445
1.52911
1.51366
1.49822
1.48271
1.46735
1.45336
1.44137
1.43254
1.42457
1.41521
1.40422
1.39064
1.3778
1.36538
1.35556
1.34779
1.34327
1.34326
1.34805
1.37982
1.45273
1.54492
1.61017
1.65936
1.67087
1.66982
1.66707
1.65929
1.64582
1.63033
1.61189
1.59841
1.59299
1.58778
1.58219
1.57721
1.57325
1.56784
1.55962
1.55806
1.56202
1.57991
1.62712
1.69656
1.79812
1
1.00047
1.05375
1.51193
2.31316
2.49283
2.45118
2.41784
2.37995
2.3454
2.31801
2.30203
2.28613
2.26225
2.23883
2.22021
2.20002
2.17717
2.15414
2.13121
2.10952
2.08939
2.06894
2.04694
2.0232
1.99811
1.97278
1.9489
1.92744
1.90804
1.88973
1.87154
1.85284
1.83342
1.81352
1.79373
1.77463
1.75661
1.73974
1.72418
1.70845
1.69338
1.68031
1.66812
1.65448
1.63893
1.62308
1.60728
1.59135
1.57539
1.55895
1.54239
1.52557
1.50889
1.49244
1.47636
1.46082
1.44658
1.43752
1.43245
1.42671
1.41854
1.40896
1.39735
1.38175
1.36705
1.35527
1.34816
1.34186
1.3387
1.33719
1.34501
1.37888
1.45604
1.55116
1.60721
1.65183
1.66173
1.65878
1.65193
1.63747
1.61535
1.59902
1.58868
1.57983
1.57332
1.56949
1.56703
1.56574
1.57125
1.59366
1.6418
1.71491
1.79019
1.84343
1.87513
1
1
1.00132
1.76153
2.69071
2.67068
2.58266
2.51471
2.46787
2.43331
2.40336
2.37813
2.35676
2.32905
2.30073
2.27736
2.25561
2.23215
2.2089
2.18687
2.16392
2.14084
2.1175
2.09283
2.06643
2.03902
2.01194
1.98649
1.96311
1.94123
1.9201
1.89922
1.87833
1.85737
1.83638
1.81566
1.79569
1.77674
1.75876
1.74147
1.72542
1.7102
1.6953
1.68092
1.66741
1.65402
1.63973
1.62358
1.60561
1.58683
1.56818
1.55055
1.53374
1.51771
1.5022
1.4868
1.47117
1.45645
1.44351
1.43242
1.42351
1.41605
1.40857
1.40043
1.39052
1.37846
1.36706
1.35944
1.35212
1.34665
1.34073
1.33709
1.33078
1.33752
1.37469
1.46163
1.5557
1.608
1.62984
1.63537
1.63014
1.61882
1.60191
1.58788
1.58124
1.57596
1.57366
1.58266
1.61353
1.67195
1.74181
1.80333
1.85602
1.87722
1.88192
1.88132
1
1
1.00002
2.08082
2.81795
2.78126
2.72201
2.66983
2.62118
2.5807
2.54386
2.50953
2.4755
2.43873
2.40629
2.38134
2.35948
2.33492
2.30732
2.28031
2.2526
2.22361
2.19416
2.16407
2.13274
2.10087
2.07021
2.04185
2.01563
1.99081
1.96672
1.94293
1.91918
1.89549
1.87214
1.84972
1.82872
1.80913
1.79056
1.77248
1.75478
1.73729
1.72021
1.70421
1.68956
1.67526
1.6598
1.64198
1.62189
1.60074
1.58003
1.56105
1.54369
1.52757
1.51224
1.49709
1.4811
1.46527
1.45124
1.43965
1.43065
1.4228
1.41484
1.40566
1.39684
1.38999
1.38171
1.37332
1.36585
1.35869
1.35086
1.34187
1.33052
1.31961
1.31146
1.32523
1.37422
1.4655
1.54584
1.60705
1.61005
1.60023
1.59039
1.58966
1.59369
1.61271
1.649
1.70558
1.77204
1.83417
1.87262
1.89558
1.90659
1.90464
1.89934
1.88427
1
1
1
2.15493
2.83432
2.82816
2.80224
2.76573
2.72663
2.6885
2.65159
2.61504
2.578
2.54071
2.50763
2.47884
2.4518
2.42023
2.38572
2.35307
2.32164
2.28743
2.25176
2.21459
2.17643
2.13978
2.10678
2.07731
2.05027
2.02454
1.99907
1.97294
1.94572
1.91838
1.89276
1.86976
1.84906
1.82987
1.81148
1.79317
1.77444
1.75516
1.73632
1.71911
1.70351
1.68832
1.67221
1.65397
1.63332
1.61081
1.58792
1.56699
1.54913
1.5336
1.51919
1.50501
1.48999
1.47415
1.45848
1.44504
1.43481
1.42569
1.41719
1.40908
1.39997
1.38833
1.37602
1.3662
1.35855
1.35121
1.34352
1.33508
1.32575
1.31414
1.30306
1.2903
1.29135
1.31493
1.38025
1.46962
1.54155
1.58513
1.6173
1.65768
1.70198
1.74833
1.79461
1.83256
1.85678
1.88015
1.89665
1.90921
1.90466
1.89741
1.89076
1.88267
1
1
1
2.13599
2.82572
2.82327
2.81012
2.78756
2.76181
2.73404
2.70353
2.66993
2.63587
2.60319
2.57144
2.53945
2.50549
2.46876
2.43084
2.39336
2.35606
2.3161
2.2752
2.23335
2.192
2.15434
2.12125
2.09166
2.0644
2.03822
2.01178
1.98394
1.95453
1.92537
1.89896
1.87603
1.85574
1.83708
1.81914
1.80088
1.78142
1.76076
1.74064
1.72269
1.70673
1.69157
1.67595
1.65863
1.63857
1.615
1.58972
1.5672
1.54932
1.53448
1.52113
1.5084
1.4946
1.4786
1.46153
1.44654
1.43543
1.42583
1.41737
1.40932
1.40061
1.39022
1.37789
1.36699
1.35853
1.35062
1.34283
1.33433
1.32576
1.31503
1.30059
1.28647
1.27991
1.27454
1.28202
1.32042
1.41313
1.54787
1.67338
1.76732
1.845
1.90529
1.95948
1.9766
1.96826
1.95332
1.9317
1.90949
1.89634
1.88576
1.88201
1.87592
)
;

boundaryField
{
    inlet
    {
        type            fixedValue;
        value           uniform 1;
    }
    outlet
    {
        type            inletOutlet;
        inletValue      uniform 1;
        value           nonuniform List<scalar> 
32
(
1.94208
1.9359
1.92294
1.90218
1.87748
1.85233
1.82906
1.81149
1.79386
1.77652
1.76106
1.7463
1.73196
1.71648
1.7011
1.68774
1.67405
1.6571
1.64041
1.62456
1.61405
1.60369
1.59107
1.5822
1.58115
1.6549
1.79621
1.87429
1.88134
1.88535
1.88344
1.87662
)
;
    }
    bottom
    {
        type            symmetryPlane;
    }
    top
    {
        type            symmetryPlane;
    }
    obstacle
    {
        type            zeroGradient;
    }
    defaultFaces
    {
        type            empty;
    }
}


// ************************************************************************* //
