/*--------------------------------*- C++ -*----------------------------------*\
  =========                 |
  \\      /  F ield         | OpenFOAM: The Open Source CFD Toolbox
   \\    /   O peration     | Website:  https://openfoam.org
    \\  /    A nd           | Version:  7
     \\/     M anipulation  |
\*---------------------------------------------------------------------------*/
FoamFile
{
    version     2.0;
    format      ascii;
    class       volScalarField;
    location    "3.8";
    object      p;
}
// * * * * * * * * * * * * * * * * * * * * * * * * * * * * * * * * * * * * * //

dimensions      [1 -1 -2 0 0 0 0];

internalField   nonuniform List<scalar> 
64512
(
1
1
1
1
1
1
1
1
1
1
1
1
1
1
1
1
1
1
1
1
1
1
1
1
1
1
1
1
1
1
1
1
1
1
1
1
1
1
1
1
1
1
1
1
1
1
1
1
1.06616
6.85329
10.4103
10.4624
10.5162
10.5732
10.6309
10.6883
10.743
10.7947
10.8448
10.8959
10.9501
11.0072
11.0654
11.1221
11.1748
11.2226
11.2665
11.3081
11.3485
11.3879
11.4271
11.4671
11.5068
11.544
11.5783
11.6109
11.6434
11.6771
11.713
11.7507
11.7888
11.8253
11.8581
11.886
11.9085
11.9259
11.9392
11.9502
11.9615
11.9754
11.9931
12.0141
12.0361
12.0558
12.0704
12.0797
1
1
1
1
1
1
1
1
1
1
1
1
1
1
1
1
1
1
1
1
1
1
1
1
1
1
1
1
1
1
1
1
1
1
1
1
1
1
1
1
1
1
1
1
1
1
1
1
1.05825
6.81692
10.4048
10.4688
10.5196
10.5761
10.6328
10.6889
10.7422
10.7922
10.8407
10.8907
10.9446
11.0022
11.0612
11.1186
11.1721
11.2207
11.265
11.3068
11.347
11.3862
11.4253
11.4652
11.505
11.5423
11.5767
11.6094
11.6418
11.6753
11.711
11.7484
11.7863
11.8226
11.8553
11.883
11.9054
11.9227
11.9361
11.9474
11.9589
11.9729
11.9904
12.0109
12.0325
12.0519
12.0665
12.0759
1
1
1
1
1
1
1
1
1
1
1
1
1
1
1
1
1
1
1
1
1
1
1
1
1
1
1
1
1
1
1
1
1
1
1
1
1
1
1
1
1
1
1
1
1
1
1
1
1.03284
6.7571
10.4089
10.4604
10.5144
10.573
10.6314
10.6884
10.7413
10.79
10.8367
10.8847
10.937
10.9941
11.0536
11.1119
11.1664
11.2162
11.2614
11.3036
11.3439
11.3828
11.4218
11.4616
11.5015
11.5391
11.5738
11.6065
11.6389
11.6723
11.7077
11.7448
11.7824
11.8185
11.851
11.8786
11.9008
11.918
11.9314
11.9429
11.9547
11.9687
11.986
12.0059
12.0268
12.0457
12.0601
12.0696
1
1
1
1
1
1
1
1
1
1
1
1
1
1
1
1
1
1
1
1
1
1
1
1
1
1
1
1
1
1
1
1
1
1
1
1
1
1
1
1
1
1
1
1
1
1
1
1
1.00211
6.64245
10.4049
10.4525
10.507
10.5666
10.6269
10.6857
10.7401
10.7893
10.8351
10.8813
10.9312
10.9867
11.0457
11.1044
11.16
11.211
11.257
11.2995
11.3395
11.378
11.4166
11.4562
11.4963
11.5341
11.5691
11.6021
11.6345
11.6676
11.7024
11.739
11.7762
11.812
11.8443
11.8718
11.8938
11.911
11.9246
11.9364
11.9486
11.9627
11.9795
11.9985
12.0184
12.0365
12.0505
12.06
1
1
1
1
1
1
1
1
1
1
1
1
1
1
1
1
1
1
1
1
1
1
1
1
1
1
1
1
1
1
1
1
1
1
1
1
1
1
1
1
1
1
1
1
1
1
1
1
1.00004
6.47281
10.3867
10.4416
10.4987
10.5598
10.622
10.6827
10.7383
10.7876
10.8322
10.8756
10.9219
10.9741
11.0313
11.0898
11.1467
11.1999
11.248
11.2918
11.3324
11.3706
11.4091
11.4484
11.4886
11.5267
11.5623
11.5957
11.6281
11.661
11.6953
11.7313
11.7679
11.8033
11.8354
11.8628
11.8847
11.902
11.9159
11.9282
11.9408
11.9549
11.9711
11.9891
12.0077
12.0248
12.0382
12.0474
1
1
1
1
1
1
1
1
1
1
1
1
1
1
1
1
1
1
1
1
1
1
1
1
1
1
1
1
1
1
1
1
1
1
1
1
1
1
1
1
1
1
1
1
1
1
1
1
1
6.25273
10.3601
10.4324
10.4911
10.5519
10.6139
10.6751
10.7323
10.7832
10.8288
10.8716
10.9157
10.9651
11.0202
11.0777
11.1347
11.1889
11.238
11.2827
11.3236
11.3617
11.4002
11.4393
11.4796
11.518
11.554
11.5876
11.6199
11.6523
11.6859
11.7212
11.7571
11.7919
11.8237
11.851
11.8731
11.8906
11.905
11.918
11.9309
11.9449
11.9606
11.9776
11.9949
12.0109
12.0234
12.0322
1
1
1
1
1
1
1
1
1
1
1
1
1
1
1
1
1
1
1
1
1
1
1
1
1
1
1
1
1
1
1
1
1
1
1
1
1
1
1
1
1
1
1
1
1
1
1
1
1
5.98391
10.3249
10.4227
10.4827
10.5436
10.605
10.6659
10.7236
10.7763
10.8239
10.8679
10.9114
10.9585
11.0105
11.0652
11.1204
11.1744
11.2245
11.2704
11.3127
11.3512
11.3898
11.4285
11.4686
11.5069
11.5431
11.5769
11.6093
11.6414
11.6745
11.709
11.7441
11.7783
11.8096
11.8367
11.8589
11.877
11.892
11.9055
11.9187
11.9326
11.9476
11.9637
11.9799
11.9947
12.0063
12.0147
1
1
1
1
1
1
1
1
1
1
1
1
1
1
1
1
1
1
1
1
1
1
1
1
1
1
1
1
1
1
1
1
1
1
1
1
1
1
1
1
1
1
1
1
1
1
1
1
1
5.66954
10.2797
10.4121
10.4731
10.535
10.5962
10.656
10.7126
10.7658
10.8152
10.8611
10.9054
10.9516
11.0016
11.0537
11.1067
11.1597
11.2097
11.2563
11.2995
11.3385
11.3774
11.4158
11.4557
11.4938
11.5302
11.5642
11.5965
11.6284
11.6609
11.6946
11.7288
11.7621
11.7929
11.8199
11.8426
11.8615
11.8773
11.8914
11.9047
11.9181
11.9323
11.9473
11.9623
11.9759
11.9863
11.9942
1
1
1
1
1
1
1
1
1
1
1
1
1
1
1
1
1
1
1
1
1
1
1
1
1
1
1
1
1
1
1
1
1
1
1
1
1
1
1
1
1
1
1
1
1
1
1
1
1
5.31347
10.2212
10.4006
10.4619
10.5253
10.5871
10.6465
10.7019
10.7541
10.8039
10.8511
10.8968
10.9434
10.9927
11.043
11.0935
11.1446
11.1937
11.2401
11.2842
11.3239
11.3634
11.4018
11.4412
11.4788
11.5149
11.5487
11.581
11.6125
11.6445
11.6773
11.7105
11.7429
11.7731
11.8001
11.8234
11.8432
11.86
11.8747
11.8881
11.9011
11.9146
11.9286
11.9424
11.9548
11.9643
11.9715
1
1
1
1
1
1
1
1
1
1
1
1
1
1
1
1
1
1
1
1
1
1
1
1
1
1
1
1
1
1
1
1
1
1
1
1
1
1
1
1
1
1
1
1
1
1
1
1
1
4.92052
10.1426
10.3889
10.4494
10.514
10.5769
10.637
10.6917
10.7426
10.7915
10.8388
10.8852
10.9324
10.9818
11.0312
11.0798
11.129
11.1768
11.2225
11.2671
11.3074
11.3476
11.3862
11.4253
11.4624
11.4981
11.5317
11.5639
11.5951
11.6264
11.6582
11.6901
11.7214
11.7509
11.7779
11.8017
11.8224
11.8402
11.8554
11.8689
11.8814
11.894
11.9069
11.9194
11.9308
11.9393
11.9461
1
1
1
1
1
1
1
1
1
1
1
1
1
1
1
1
1
1
1
1
1
1
1
1
1
1
1
1
1
1
1
1
1
1
1
1
1
1
1
1
1
1
1
1
1
1
1
1
1
4.49573
10.0359
10.3785
10.4371
10.5019
10.5652
10.6262
10.681
10.731
10.7791
10.8261
10.8723
10.9196
10.9691
11.018
11.0651
11.1125
11.1591
11.2035
11.2482
11.2888
11.3294
11.368
11.4068
11.4433
11.4785
11.512
11.5439
11.5748
11.6055
11.6363
11.6672
11.6975
11.7265
11.7534
11.7777
11.7992
11.8178
11.8335
11.8469
11.859
11.8707
11.8824
11.8938
11.9042
11.9119
11.9183
1
1
1
1
1
1
1
1
1
1
1
1
1
1
1
1
1
1
1
1
1
1
1
1
1
1
1
1
1
1
1
1
1
1
1
1
1
1
1
1
1
1
1
1
1
1
1
1
1
4.04248
9.89474
10.3695
10.4257
10.4901
10.5529
10.6147
10.6702
10.7201
10.7678
10.8145
10.8603
10.9071
10.9561
11.0046
11.0506
11.0965
11.1418
11.1848
11.2288
11.2692
11.3095
11.3479
11.3861
11.4219
11.4565
11.4896
11.5211
11.5515
11.5813
11.6112
11.6412
11.6709
11.6996
11.7265
11.7513
11.7733
11.7925
11.8086
11.822
11.8336
11.8443
11.8547
11.8648
11.8744
11.8815
11.8877
1
1
1
1
1
1
1
1
1
1
1
1
1
1
1
1
1
1
1
1
1
1
1
1
1
1
1
1
1
1
1
1
1
1
1
1
1
1
1
1
1
1
1
1
1
1
1
1
1
3.56718
9.71066
10.362
10.4158
10.4785
10.5396
10.6009
10.6569
10.7069
10.7543
10.8007
10.8461
10.892
10.9403
10.9885
11.0339
11.0788
11.1234
11.1654
11.2088
11.2487
11.2886
11.3265
11.364
11.3993
11.4332
11.4656
11.4964
11.5258
11.5545
11.5834
11.6126
11.6418
11.6703
11.6972
11.7222
11.7445
11.764
11.7804
11.7938
11.8048
11.8145
11.8237
11.8327
11.8416
11.8484
11.8545
1
1
1
1
1
1
1
1
1
1
1
1
1
1
1
1
1
1
1
1
1
1
1
1
1
1
1
1
1
1
1
1
1
1
1
1
1
1
1
1
1
1
1
1
1
1
1
1
1
3.07802
9.47243
10.3615
10.4095
10.4677
10.5249
10.5843
10.6402
10.6901
10.7374
10.7837
10.8291
10.8743
10.9218
10.9699
11.0151
11.0593
11.1035
11.1447
11.1871
11.2265
11.2656
11.3031
11.34
11.3749
11.4082
11.4397
11.4694
11.4976
11.5251
11.5528
11.5813
11.6101
11.6384
11.6652
11.6902
11.7126
11.7322
11.7487
11.7621
11.7726
11.7814
11.7894
11.7972
11.8054
11.8118
11.8178
1
1
1
1
1
1
1
1
1
1
1
1
1
1
1
1
1
1
1
1
1
1
1
1
1
1
1
1
1
1
1
1
1
1
1
1
1
1
1
1
1
1
1
1
1
1
1
1
1
2.59432
9.16512
10.3704
10.4111
10.4622
10.5148
10.5709
10.6256
10.6757
10.7231
10.7695
10.8144
10.8582
10.9038
10.9508
10.9954
11.0389
11.0827
11.1235
11.1646
11.2032
11.2409
11.2776
11.3136
11.3479
11.3805
11.4112
11.4399
11.467
11.4935
11.5202
11.5479
11.5761
11.604
11.6305
11.6551
11.6773
11.6969
11.7133
11.7265
11.7365
11.7444
11.7513
11.7582
11.7657
11.7719
11.7777
1
1
1
1
1
1
1
1
1
1
1
1
1
1
1
1
1
1
1
1
1
1
1
1
1
1
1
1
1
1
1
1
1
1
1
1
1
1
1
1
1
1
1
1
1
1
1
1
1
2.13612
8.76581
10.3864
10.4062
10.4521
10.5007
10.5544
10.6087
10.6599
10.708
10.7547
10.799
10.8411
10.8847
10.9306
10.9753
11.0185
11.0618
11.1019
11.1409
11.1783
11.2141
11.2497
11.2846
11.3185
11.3505
11.3805
11.4082
11.4344
11.4598
11.4855
11.5121
11.5395
11.5667
11.5927
11.6168
11.6387
11.6579
11.674
11.6867
11.6962
11.7033
11.7093
11.7153
11.7222
11.7279
11.7332
1
1
1
1
1
1
1
1
1
1
1
1
1
1
1
1
1
1
1
1
1
1
1
1
1
1
1
1
1
1
1
1
1
1
1
1
1
1
1
1
1
1
1
1
1
1
1
1
1
1.72377
8.2767
10.4157
10.4075
10.4487
10.4903
10.5392
10.591
10.642
10.6902
10.7366
10.7809
10.8229
10.865
10.9095
10.9542
10.9972
11.04
11.0793
11.116
11.1522
11.1863
11.2207
11.2543
11.2872
11.3182
11.3471
11.3739
11.3991
11.4235
11.4483
11.4738
11.5003
11.5266
11.5519
11.5752
11.5963
11.6148
11.6301
11.6422
11.651
11.6576
11.663
11.6684
11.6746
11.6798
11.6845
1
1
1
1
1
1
1
1
1
1
1
1
1
1
1
1
1
1
1
1
1
1
1
1
1
1
1
1
1
1
1
1
1
1
1
1
1
1
1
1
1
1
1
1
1
1
1
1
1
1.37148
7.69986
10.4231
10.3885
10.4251
10.4618
10.5097
10.5625
10.6165
10.6678
10.7161
10.7597
10.8009
10.8424
10.886
10.9307
10.9735
11.0158
11.0546
11.0894
11.1246
11.1574
11.1906
11.2225
11.254
11.2835
11.3113
11.3372
11.3616
11.3853
11.409
11.4333
11.4584
11.4835
11.5075
11.5298
11.5499
11.5673
11.5817
11.593
11.6012
11.6072
11.6121
11.6169
11.6222
11.6265
11.6303
1
1
1
1
1
1
1
1
1
1
1
1
1
1
1
1
1
1
1
1
1
1
1
1
1
1
1
1
1
1
1
1
1
1
1
1
1
1
1
1
1
1
1
1
1
1
1
1
1
1.10423
7.09255
10.3546
10.3585
10.3979
10.4419
10.4926
10.5429
10.5932
10.6418
10.689
10.7331
10.7745
10.8159
10.8592
10.9039
10.947
10.9889
11.0274
11.0607
11.0948
11.1266
11.1586
11.1889
11.2188
11.247
11.2737
11.2987
11.3224
11.3451
11.3675
11.3902
11.4134
11.4368
11.4594
11.4803
11.4989
11.5149
11.528
11.5382
11.5457
11.5512
11.5558
11.5602
11.5647
11.5679
11.571
1
1
1
1
1
1
1
1
1
1
1
1
1
1
1
1
1
1
1
1
1
1
1
1
1
1
1
1
1
1
1
1
1
1
1
1
1
1
1
1
1
1
1
1
1
1
1
1
1
1.00347
6.33451
10.2262
10.3012
10.35
10.3981
10.4494
10.5028
10.557
10.6097
10.6593
10.7031
10.744
10.7855
10.8288
10.8733
10.9166
10.9582
10.9967
11.0294
11.0621
11.0932
11.1243
11.1533
11.1818
11.2087
11.2343
11.2584
11.281
11.3026
11.3234
11.3441
11.3652
11.3866
11.4073
11.4264
11.4433
11.4576
11.4693
11.4783
11.4849
11.4897
11.4937
11.4973
11.5005
11.5025
11.5046
1
1
1
1
1
1
1
1
1
1
1
1
1
1
1
1
1
1
1
1
1
1
1
1
1
1
1
1
1
1
1
1
1
1
1
1
1
1
1
1
1
1
1
1
1
1
1
1
1
1.00002
5.52647
10.0995
10.2404
10.3175
10.3797
10.4329
10.4837
10.5336
10.5817
10.6279
10.6711
10.7119
10.7522
10.7942
10.8384
10.882
10.9234
10.9621
10.995
11.0263
11.0568
11.0872
11.1152
11.1424
11.1681
11.1928
11.2158
11.2374
11.2575
11.2766
11.2952
11.3138
11.3327
11.351
11.3679
11.3826
11.3947
11.4044
11.4117
11.4171
11.4211
11.4245
11.4272
11.4293
11.4303
11.4318
1
1
1
1
1
1
1
1
1
1
1
1
1
1
1
1
1
1
1
1
1
1
1
1
1
1
1
1
1
1
1
1
1
1
1
1
1
1
1
1
1
1
1
1
1
1
1
1
1
1
4.64289
9.89347
10.1976
10.2786
10.344
10.4015
10.4553
10.5072
10.5564
10.6028
10.6449
10.6835
10.7219
10.7618
10.8029
10.8453
10.8858
10.9242
10.9573
10.9873
11.0172
11.0468
11.0743
11.1003
11.1251
11.1488
11.1708
11.191
11.2096
11.2267
11.2429
11.2588
11.2748
11.2902
11.3043
11.3163
11.3261
11.3336
11.3392
11.3432
11.3461
11.3479
11.3487
11.3492
11.3487
11.3492
1
1
1
1
1
1
1
1
1
1
1
1
1
1
1
1
1
1
1
1
1
1
1
1
1
1
1
1
1
1
1
1
1
1
1
1
1
1
1
1
1
1
1
1
1
1
1
1
1
1
3.75087
9.6024
10.1772
10.265
10.3376
10.39
10.4358
10.4813
10.5263
10.5709
10.6138
10.6535
10.6912
10.7294
10.7693
10.8079
10.8467
10.8824
10.9159
10.9449
10.9741
11.0026
11.0299
11.0551
11.0791
11.1017
11.1226
11.1414
11.1583
11.1735
11.1873
11.2003
11.2128
11.2247
11.2354
11.2442
11.251
11.2558
11.2588
11.2605
11.2613
11.2611
11.2602
11.2591
11.2577
11.2578
1
1
1
1
1
1
1
1
1
1
1
1
1
1
1
1
1
1
1
1
1
1
1
1
1
1
1
1
1
1
1
1
1
1
1
1
1
1
1
1
1
1
1
1
1
1
1
1
1
1
2.92698
9.15477
10.1846
10.2491
10.3106
10.3605
10.4124
10.4608
10.505
10.5469
10.5855
10.6219
10.6581
10.6952
10.7333
10.7719
10.8071
10.8417
10.8725
10.9001
10.9284
10.9553
10.982
11.0065
11.0297
11.0512
11.0709
11.0882
11.1034
11.1164
11.1277
11.1374
11.1461
11.154
11.1606
11.1658
11.1692
11.1709
11.1713
11.1703
11.168
11.1645
11.1605
11.1565
11.153
11.1516
1
1
1
1
1
1
1
1
1
1
1
1
1
1
1
1
1
1
1
1
1
1
1
1
1
1
1
1
1
1
1
1
1
1
1
1
1
1
1
1
1
1
1
1
1
1
1
1
1
1
2.09733
8.50729
10.2713
10.2538
10.3114
10.3537
10.3937
10.4323
10.4747
10.5177
10.5585
10.5954
10.629
10.6627
10.6971
10.7326
10.7665
10.7964
10.8281
10.8546
10.8796
10.9049
10.9305
10.9542
10.9765
10.9969
11.0152
11.031
11.0443
11.0552
11.064
11.07
11.0746
11.0779
11.0801
11.0808
11.0803
11.078
11.0739
11.0682
11.061
11.0533
11.0458
11.0394
11.0344
11.0325
1
1
1
1
1
1
1
1
1
1
1
1
1
1
1
1
1
1
1
1
1
1
1
1
1
1
1
1
1
1
1
1
1
1
1
1
1
1
1
1
1
1
1
1
1
1
1
1
1
1
1.36919
7.77651
10.371
10.2584
10.2734
10.3081
10.3548
10.4027
10.4482
10.4891
10.528
10.564
10.5979
10.6309
10.6634
10.6954
10.726
10.7536
10.7786
10.8069
10.8303
10.8523
10.8755
10.8982
10.9193
10.9383
10.9551
10.9693
10.9805
10.9894
10.9953
10.9975
10.9978
10.9961
10.9932
10.9888
10.9834
10.976
10.9667
10.9556
10.9432
10.9299
10.9164
10.9038
10.894
10.8883
1
1
1
1
1
1
1
1
1
1
1
1
1
1
1
1
1
1
1
1
1
1
1
1
1
1
1
1
1
1
1
1
1
1
1
1
1
1
1
1
1
1
1
1
1
1
1
1
1
1
1.01844
6.89816
10.2572
10.1702
10.2338
10.28
10.3251
10.3685
10.4146
10.4579
10.4966
10.5324
10.5654
10.5966
10.6272
10.6576
10.6864
10.7123
10.7352
10.7571
10.7789
10.7985
10.8184
10.8389
10.8583
10.8757
10.8907
10.903
10.912
10.9187
10.9214
10.92
10.9155
10.9086
10.9001
10.8897
10.8781
10.8643
10.8477
10.8283
10.8063
10.7834
10.7616
10.7429
10.7297
10.7237
1
1
1
1
1
1
1
1
1
1
1
1
1
1
1
1
1
1
1
1
1
1
1
1
1
1
1
1
1
1
1
1
1
1
1
1
1
1
1
1
1
1
1
1
1
1
1
1
1
1
1.00004
5.72534
9.97503
10.1079
10.1876
10.2401
10.2904
10.3353
10.377
10.4178
10.4596
10.4972
10.5307
10.561
10.5899
10.6182
10.645
10.6694
10.6904
10.7097
10.7286
10.7449
10.76
10.7777
10.7946
10.8094
10.8219
10.8317
10.8385
10.8424
10.8416
10.8366
10.8273
10.815
10.8
10.7828
10.7637
10.7414
10.7154
10.6859
10.6538
10.6208
10.5877
10.555
10.5275
10.5094
1
1
1
1
1
1
1
1
1
1
1
1
1
1
1
1
1
1
1
1
1
1
1
1
1
1
1
1
1
1
1
1
1
1
1
1
1
1
1
1
1
1
1
1
1
1
1
1
1
1
1
4.61357
9.76232
10.0323
10.1395
10.2192
10.2669
10.3035
10.3429
10.3838
10.4205
10.4559
10.4906
10.5217
10.5496
10.5763
10.6019
10.6252
10.6447
10.6612
10.6775
10.6917
10.7032
10.7154
10.7291
10.7409
10.7501
10.7567
10.7607
10.7609
10.7566
10.7478
10.7335
10.7154
10.6932
10.668
10.6398
10.6073
10.5696
10.5267
10.478
10.4239
10.367
10.3139
10.2721
10.255
1
1
1
1
1
1
1
1
1
1
1
1
1
1
1
1
1
1
1
1
1
1
1
1
1
1
1
1
1
1
1
1
1
1
1
1
1
1
1
1
1
1
1
1
1
1
1
1
1
1
1
3.50356
9.28678
10.0437
10.1409
10.1993
10.2417
10.2797
10.3117
10.3437
10.378
10.414
10.4465
10.4769
10.5048
10.5308
10.5553
10.5777
10.5964
10.6113
10.6248
10.6366
10.6458
10.6537
10.6625
10.6703
10.6758
10.6787
10.6789
10.6745
10.6663
10.6532
10.6339
10.6095
10.5794
10.5451
10.506
10.461
10.4084
10.3473
10.2772
10.2003
10.1191
10.0372
9.95092
9.87856
1
1
1
1
1
1
1
1
1
1
1
1
1
1
1
1
1
1
1
1
1
1
1
1
1
1
1
1
1
1
1
1
1
1
1
1
1
1
1
1
1
1
1
1
1
1
1
1
1
1
1
2.40154
8.58061
10.1152
10.1425
10.1767
10.2099
10.2466
10.2808
10.3117
10.3422
10.3719
10.402
10.4312
10.4575
10.4822
10.5057
10.5272
10.5452
10.5593
10.5709
10.5804
10.587
10.5913
10.5953
10.5985
10.5998
10.5989
10.5941
10.5849
10.5719
10.5537
10.529
10.4976
10.459
10.4141
10.3624
10.3026
10.2321
10.1497
10.0529
9.93861
9.79902
9.63424
9.47195
9.35539
1
1
1
1
1
1
1
1
1
1
1
1
1
1
1
1
1
1
1
1
1
1
1
1
1
1
1
1
1
1
1
1
1
1
1
1
1
1
1
1
1
1
1
1
1
1
1
1
1
1
1
1.442
7.83192
10.2658
10.1202
10.1316
10.1664
10.2063
10.2418
10.2742
10.3058
10.335
10.3619
10.3864
10.4098
10.4317
10.453
10.473
10.4904
10.5042
10.5146
10.522
10.5262
10.5272
10.5267
10.5251
10.522
10.5162
10.5065
10.4924
10.4737
10.4498
10.4188
10.3799
10.3321
10.2756
10.2097
10.133
10.0418
9.93244
9.79822
9.63187
9.42779
9.18281
8.91878
8.74722
1
1
1
1
1
1
1
1
1
1
1
1
1
1
1
1
1
1
1
1
1
1
1
1
1
1
1
1
1
1
1
1
1
1
1
1
1
1
1
1
1
1
1
1
1
1
1
1
1
1
1
1.02444
6.73068
10.0868
10.0344
10.0834
10.1213
10.165
10.2032
10.2355
10.2664
10.2951
10.3216
10.3451
10.3653
10.3834
10.401
10.4182
10.4339
10.4469
10.4561
10.4615
10.4632
10.4616
10.4571
10.4509
10.4429
10.4322
10.4173
10.398
10.3732
10.3426
10.3045
10.2574
10.1997
10.1306
10.0492
9.95356
9.83871
9.69872
9.52405
9.30315
9.00632
8.56412
7.73169
5.77653
1
1
1
1
1
1
1
1
1
1
1
1
1
1
1
1
1
1
1
1
1
1
1
1
1
1
1
1
1
1
1
1
1
1
1
1
1
1
1
1
1
1
1
1
1
1
1
1
1
1
1
1.00001
5.29174
9.73731
9.95318
10.0367
10.0882
10.1253
10.1611
10.1924
10.2228
10.2514
10.2774
10.3003
10.3195
10.3352
10.3492
10.3631
10.3762
10.3878
10.395
10.3986
10.3979
10.3937
10.386
10.3754
10.3623
10.3462
10.3259
10.3009
10.27
10.2325
10.1867
10.1309
10.0627
9.98063
9.8829
9.76713
9.62722
9.45443
9.23476
8.94312
8.53511
7.89175
6.92515
4.71405
1
1
1
1
1
1
1
1
1
1
1
1
1
1
1
1
1
1
1
1
1
1
1
1
1
1
1
1
1
1
1
1
1
1
1
1
1
1
1
1
1
1
1
1
1
1
1
1
1
1
1
0.999998
3.9579
9.38139
9.93221
10.0127
10.067
10.0975
10.1178
10.1451
10.1747
10.2037
10.2303
10.2534
10.2724
10.2869
10.2983
10.3087
10.3187
10.3275
10.3327
10.334
10.3307
10.3237
10.313
10.2987
10.281
10.2594
10.2336
10.2025
10.1652
10.1206
10.0667
10.0016
9.92262
9.8273
9.71305
9.57676
9.41133
9.20634
8.9429
8.59635
8.10124
7.43626
6.16456
4.34599
1
1
1
1
1
1
1
1
1
1
1
1
1
1
1
1
1
1
1
1
1
1
1
1
1
1
1
1
1
1
1
1
1
1
1
1
1
1
1
1
1
1
1
1
1
1
1
1
1
1
1
1
2.63354
8.66262
9.98118
10.0107
10.0383
10.0606
10.0835
10.1075
10.1329
10.1591
10.1843
10.2064
10.2241
10.2373
10.2469
10.2546
10.2612
10.2666
10.2697
10.2684
10.2623
10.2521
10.2383
10.2207
10.1989
10.1722
10.1404
10.1029
10.0586
10.0067
9.94485
9.87071
9.78104
9.67294
9.54277
9.38701
9.19717
8.96385
8.66282
8.27603
7.73253
6.98983
5.75088
4.2604
1
1
1
1
1
1
1
1
1
1
1
1
1
1
1
1
1
1
1
1
1
1
1
1
1
1
1
1
1
1
1
1
1
1
1
1
1
1
1
1
1
1
1
1
1
1
1
1
1
1
1
1
1.506
7.87853
10.1156
9.98731
9.98178
10.0136
10.0436
10.0685
10.0916
10.1146
10.1375
10.1579
10.1744
10.1864
10.1947
10.2001
10.2034
10.2055
10.2058
10.2022
10.1935
10.1798
10.1625
10.1412
10.1154
10.0842
10.0467
10.0029
9.95165
9.89222
9.82235
9.7395
9.6395
9.5194
9.3744
9.20113
8.99003
8.73265
8.40502
7.98399
7.42587
6.65499
5.55425
4.37309
1
1
1
1
1
1
1
1
1
1
1
1
1
1
1
1
1
1
1
1
1
1
1
1
1
1
1
1
1
1
1
1
1
1
1
1
1
1
1
1
1
1
1
1
1
1
1
1
1
1
1
1
1.03065
6.60808
9.923
9.88469
9.92499
9.96637
10.0009
10.0268
10.0491
10.0702
10.091
10.1096
10.1243
10.1352
10.1419
10.1446
10.145
10.1438
10.1407
10.1347
10.1236
10.1069
10.0861
10.0608
10.0311
9.9958
9.95318
9.90325
9.84502
9.7779
9.69968
9.60839
9.49913
9.3687
9.21076
9.02255
8.79451
8.5179
8.17362
7.7346
7.17157
6.43146
5.49201
4.51356
1
1
1
1
1
1
1
1
1
1
1
1
1
1
1
1
1
1
1
1
1
1
1
1
1
1
1
1
1
1
1
1
1
1
1
1
1
1
1
1
1
1
1
1
1
1
1
1
1
1
1
1
1
4.95612
9.49361
9.8095
9.88733
9.92931
9.95734
9.98199
10.0036
10.0236
10.0429
10.0601
10.0738
10.084
10.0889
10.089
10.0865
10.082
10.0758
10.0668
10.0533
10.0342
10.0099
9.98054
9.9465
9.90647
9.85909
9.80354
9.7388
9.66454
9.57844
9.47879
9.36088
9.22189
9.05333
8.85315
8.61256
8.32287
7.96967
7.52938
6.97422
6.29708
5.48987
4.64608
1
1
1
1
1
1
1
1
1
1
1
1
1
1
1
1
1
1
1
1
1
1
1
1
1
1
1
1
1
1
1
1
1
1
1
1
1
1
1
1
1
1
1
1
1
1
1
1
1
1
1
1
0.999996
3.4026
9.06258
9.81516
9.86657
9.90423
9.92507
9.94197
9.95923
9.9765
9.99347
10.009
10.0216
10.031
10.0344
10.0323
10.0271
10.0197
10.0106
9.99823
9.98185
9.96038
9.93323
9.90009
9.86175
9.81719
9.76541
9.70496
9.6344
9.55344
9.45992
9.35225
9.22623
9.07935
8.90355
8.69494
8.44595
8.14893
7.79413
7.35949
6.8336
6.21502
5.50836
4.78834
1
1
1
1
1
1
1
1
1
1
1
1
1
1
1
1
1
1
1
1
1
1
1
1
1
1
1
1
1
1
1
1
1
1
1
1
1
1
1
1
1
1
1
1
1
1
1
1
1
1
1
1
0.999999
1.98211
8.25292
9.89267
9.8425
9.86208
9.88662
9.90508
9.92033
9.93431
9.94776
9.96044
9.97132
9.97936
9.98129
9.97707
9.96878
9.95803
9.94549
9.92995
9.91062
9.88652
9.85676
9.82034
9.77776
9.72875
9.6721
9.60677
9.53099
9.4441
9.34405
9.22936
9.09659
8.94233
8.76125
8.54802
8.29483
7.99539
7.64523
7.21928
6.73333
6.17176
5.54139
4.92383
1
1
1
1
1
1
1
1
1
1
1
1
1
1
1
1
1
1
1
1
1
1
1
1
1
1
1
1
1
1
1
1
1
1
1
1
1
1
1
1
1
1
1
1
1
1
1
1
1
1
1
1
1
1.10556
6.965
9.92772
9.83641
9.82417
9.84481
9.86322
9.87723
9.88932
9.89999
9.90984
9.91876
9.92558
9.92626
9.92064
9.90993
9.89618
9.88041
9.86182
9.83954
9.81256
9.77986
9.74048
9.69407
9.64113
9.58018
9.51032
9.43002
9.33801
9.23227
9.11146
8.97295
8.81298
8.62772
8.412
8.15894
7.86129
7.51827
7.10769
6.66122
6.15001
5.58398
5.04532
1
1
1
1
1
1
1
1
1
1
1
1
1
1
1
1
1
1
1
1
1
1
1
1
1
1
1
1
1
1
1
1
1
1
1
1
1
1
1
1
1
1
1
1
1
1
1
1
1
1
1
1
1
1.00083
5.27867
9.45964
9.68612
9.76172
9.78873
9.81185
9.82954
9.84223
9.85149
9.85904
9.86616
9.87162
9.87141
9.8648
9.85195
9.83516
9.81589
9.79387
9.76864
9.73894
9.70342
9.66123
9.61148
9.55468
9.48991
9.41586
9.33095
9.23435
9.12386
8.99817
8.85511
8.69124
8.50352
8.28695
8.03625
7.74464
7.41195
7.02126
6.6079
6.13654
5.63149
5.14679
1
1
1
1
1
1
1
1
1
1
1
1
1
1
1
1
1
1
1
1
1
1
1
1
1
1
1
1
1
1
1
1
1
1
1
1
1
1
1
1
1
1
1
1
1
1
1
1
1
1
1
1
1
0.99999
3.50021
9.01808
9.7069
9.73423
9.75793
9.77641
9.79024
9.80047
9.80608
9.81055
9.81471
9.81791
9.81643
9.80885
9.79426
9.77499
9.75251
9.72704
9.69887
9.66643
9.62811
9.583
9.53011
9.46964
9.40108
9.32388
9.23509
9.13453
9.02023
8.89073
8.74406
8.57747
8.38851
8.17269
7.92572
7.64355
7.32181
6.95464
6.57074
6.12807
5.6793
5.2301
1
1
1
1
1
1
1
1
1
1
1
1
1
1
1
1
1
1
1
1
1
1
1
1
1
1
1
1
1
1
1
1
1
1
1
1
1
1
1
1
1
1
1
1
1
1
1
1
1
1
1
1
1
0.999997
1.92673
8.24188
9.74309
9.68661
9.70709
9.73747
9.75343
9.75955
9.76116
9.76212
9.76301
9.76363
9.76065
9.75226
9.73672
9.71556
9.68995
9.66092
9.6294
9.59407
9.55315
9.50549
9.44983
9.38619
9.31412
9.23347
9.14195
9.03821
8.92063
8.78838
8.63931
8.47128
8.28225
8.06845
7.82657
7.55513
7.24388
6.90475
6.54376
6.12732
5.72481
5.29984
1
1
1
1
1
1
1
1
1
1
1
1
1
1
1
1
1
1
1
1
1
1
1
1
1
1
1
1
1
1
1
1
1
1
1
1
1
1
1
1
1
1
1
1
1
1
1
1
1
1
1
1
1
1
1.08678
6.77441
9.73338
9.67231
9.67609
9.69476
9.71061
9.7155
9.71559
9.71428
9.71239
9.71028
9.70544
9.69604
9.67988
9.6574
9.62902
9.59661
9.56162
9.52327
9.47984
9.42987
9.37174
9.30525
9.23001
9.14583
9.05153
8.94596
8.82616
8.69198
8.54144
8.37291
8.18468
7.97358
7.73793
7.47539
7.17793
6.86519
6.51985
6.13444
5.76749
5.36589
1
1
1
1
1
1
1
1
1
1
1
1
1
1
1
1
1
1
1
1
1
1
1
1
1
1
1
1
1
1
1
1
1
1
1
1
1
1
1
1
1
1
1
1
1
1
1
1
1
1
1
1
1
1
1.00049
4.86175
9.23551
9.53529
9.61799
9.65956
9.66981
9.66998
9.66827
9.66482
9.66052
9.65576
9.64901
9.63855
9.62221
9.59891
9.5686
9.53333
9.4948
9.45313
9.40699
9.35482
9.29465
9.2259
9.14807
9.06103
8.96411
8.85641
8.73558
8.60075
8.44953
8.28151
8.09518
7.88737
7.65874
7.40249
7.12387
6.83185
6.49618
6.14588
5.80594
5.42976
1
1
1
1
1
1
1
1
1
1
1
1
1
1
1
1
1
1
1
1
1
1
1
1
1
1
1
1
1
1
1
1
1
1
1
1
1
1
1
1
1
1
1
1
1
1
1
1
1
1
1
1
1
1
0.999995
2.85401
8.68443
9.62987
9.6199
9.62385
9.63165
9.63117
9.62685
9.62006
9.61237
9.60415
9.59476
9.58263
9.5657
9.54147
9.50995
9.47226
9.43028
9.38509
9.33601
9.28163
9.2197
9.14922
9.06934
8.97998
8.88085
8.77115
8.64936
8.51456
8.36395
8.19696
8.01335
7.80934
7.58758
7.33765
7.07859
6.79636
6.47613
6.16351
5.83942
5.4871
1
1
1
1
1
1
1
1
1
1
1
1
1
1
1
1
1
1
1
1
1
1
1
1
1
1
1
1
1
1
1
1
1
1
1
1
1
1
1
1
1
1
1
1
1
1
1
1
1
1
1
1
1
1
0.999999
1.33551
7.59576
9.73657
9.59958
9.56806
9.5787
9.58179
9.57837
9.57098
9.56158
9.55093
9.53928
9.52546
9.50768
9.4832
9.45116
9.41188
9.36706
9.3184
9.26607
9.2093
9.14578
9.07404
8.99277
8.9018
8.80101
8.68986
8.56744
8.43241
8.28302
8.11804
7.93803
7.73779
7.5231
7.28101
7.03506
6.76205
6.46664
6.18007
5.86201
5.53936
1
1
1
1
1
1
1
1
1
1
1
1
1
1
1
1
1
1
1
1
1
1
1
1
1
1
1
1
1
1
1
1
1
1
1
1
1
1
1
1
1
1
1
1
1
1
1
1
1
1
1
1
1
1
1
1.01091
5.85469
9.3151
9.44653
9.51502
9.53457
9.53341
9.53036
9.52256
9.51184
9.49922
9.48541
9.46966
9.45046
9.42571
9.39346
9.35328
9.30633
9.25449
9.19868
9.13911
9.07395
9.00127
8.91906
8.82703
8.72501
8.61288
8.49011
8.35535
8.20718
8.04477
7.86826
7.67247
7.46423
7.23137
6.99728
6.73427
6.45916
6.18479
5.88331
5.59296
1
1
1
1
1
1
1
1
1
1
1
1
1
1
1
1
1
1
1
1
1
1
1
1
1
1
1
1
1
1
1
1
1
1
1
1
1
1
1
1
1
1
1
1
1
1
1
1
1
1
1
1
1
1
1
0.999926
3.67346
8.88029
9.4644
9.49139
9.49289
9.49383
9.49021
9.4804
9.46702
9.45127
9.43418
9.41542
9.39387
9.36815
9.33563
9.29505
9.24681
9.19248
9.13338
9.07072
9.00353
8.92992
8.84719
8.75473
8.65214
8.53961
8.4168
8.28274
8.13607
7.97626
7.80287
7.61302
7.40877
7.1889
6.96513
6.70608
6.45095
6.1892
5.91007
5.63867
1
1
1
1
1
1
1
1
1
1
1
1
1
1
1
1
1
1
1
1
1
1
1
1
1
1
1
1
1
1
1
1
1
1
1
1
1
1
1
1
1
1
1
1
1
1
1
1
1
1
1
1
1
1
1
0.999981
1.80133
8.10332
9.56185
9.45238
9.43929
9.44371
9.44135
9.432
9.41839
9.40139
9.38227
9.36126
9.33759
9.31069
9.27789
9.23734
9.18867
9.13282
9.07117
9.0055
8.93577
8.86072
8.77758
8.68527
8.58265
8.4702
8.34764
8.21446
8.06978
7.91236
7.7431
7.55755
7.35817
7.15345
6.93278
6.68325
6.44916
6.19725
5.93708
5.67185
1
1
1
1
1
1
1
1
1
1
1
1
1
1
1
1
1
1
1
1
1
1
1
1
1
1
1
1
1
1
1
1
1
1
1
1
1
1
1
1
1
1
1
1
1
1
1
1
1
1
1
1
1
1
1
0.999997
1.05969
6.44669
9.33584
9.34761
9.36999
9.39014
9.39004
9.38279
9.36966
9.35183
9.33104
9.30799
9.28221
9.25375
9.22022
9.1797
9.13108
9.0746
9.01131
8.94318
8.87067
8.79346
8.70953
8.61758
8.51568
8.40402
8.28218
8.15009
8.00784
7.85262
7.68829
7.50601
7.31397
7.11813
6.89881
6.67054
6.44962
6.20249
5.9541
5.69913
1
1
1
1
1
1
1
1
1
1
1
1
1
1
1
1
1
1
1
1
1
1
1
1
1
1
1
1
1
1
1
1
1
1
1
1
1
1
1
1
1
1
1
1
1
1
1
1
1
1
1
1
1
1
1
1
1.00013
4.14796
8.8814
9.30076
9.33827
9.3593
9.35417
9.34443
9.32894
9.30825
9.28442
9.2583
9.22954
9.19862
9.16355
9.1226
9.07417
9.01773
8.9538
8.88399
8.80906
8.72935
8.64406
8.55215
8.45143
8.34118
8.22069
8.08979
7.95005
7.7967
7.63731
7.45853
7.27435
7.08304
6.87192
6.66287
6.44398
6.20722
5.9733
5.73313
1
1
1
1
1
1
1
1
1
1
1
1
1
1
1
1
1
1
1
1
1
1
1
1
1
1
1
1
1
1
1
1
1
1
1
1
1
1
1
1
1
1
1
1
1
1
1
1
1
1
1
1
1
1
1
1
0.999998
2.02614
8.19014
9.39214
9.33195
9.31823
9.30663
9.29689
9.28172
9.26055
9.23543
9.20756
9.17666
9.14367
9.10709
9.06561
9.01745
8.96154
8.89786
8.82725
8.75054
8.66862
8.5815
8.48886
8.38904
8.28043
8.1621
8.03284
7.89554
7.74427
7.58926
7.41432
7.23913
7.05303
6.85113
6.64987
6.43399
6.21785
5.99613
5.76465
1
1
1
1
1
1
1
1
1
1
1
1
1
1
1
1
1
1
1
1
1
1
1
1
1
1
1
1
1
1
1
1
1
1
1
1
1
1
1
1
1
1
1
1
1
1
1
1
1
1
1
1
1
1
1
1
1
1.09229
6.53977
9.26307
9.24525
9.25295
9.25099
9.24772
9.23461
9.21386
9.18801
9.15861
9.12579
9.0906
9.05227
9.00984
8.96161
8.90625
8.84327
8.77264
8.69503
8.61148
8.52285
8.42907
8.32927
8.22213
8.10634
7.9794
7.8442
7.69604
7.54354
7.37463
7.2084
7.02505
6.8312
6.63616
6.43186
6.23033
6.01387
5.78932
1
1
1
1
1
1
1
1
1
1
1
1
1
1
1
1
1
1
1
1
1
1
1
1
1
1
1
1
1
1
1
1
1
1
1
1
1
1
1
1
1
1
1
1
1
1
1
1
1
1
1
1
1
1
1
1
1
1.00046
4.12132
8.77719
9.19048
9.20916
9.21874
9.21675
9.2001
9.17626
9.14738
9.11478
9.07878
9.0406
8.99984
8.95575
8.90682
8.85167
8.78944
8.71943
8.64189
8.55765
8.46763
8.37294
8.27233
8.16584
8.05228
7.92803
7.79563
7.6516
7.50045
7.34016
7.17878
6.9968
6.81372
6.6281
6.43381
6.23619
6.02446
5.81175
1
1
1
1
1
1
1
1
1
1
1
1
1
1
1
1
1
1
1
1
1
1
1
1
1
1
1
1
1
1
1
1
1
1
1
1
1
1
1
1
1
1
1
1
1
1
1
1
1
1
1
1
1
1
1
1
1
0.999996
1.88265
8.05068
9.33586
9.22557
9.1918
9.16928
9.15072
9.12854
9.10088
9.06812
9.03094
8.99098
8.94841
8.90285
8.85315
8.79801
8.73641
8.66736
8.59061
8.50676
8.41638
8.32066
8.21877
8.11305
8.00035
7.87863
7.75008
7.61003
7.46161
7.30938
7.14852
6.97238
6.80065
6.62193
6.43179
6.23854
6.03803
5.83739
1
1
1
1
1
1
1
1
1
1
1
1
1
1
1
1
1
1
1
1
1
1
1
1
1
1
1
1
1
1
1
1
1
1
1
1
1
1
1
1
1
1
1
1
1
1
1
1
1
1
1
1
1
1
1
1
1
0.999999
1.06712
6.29835
9.05403
9.11077
9.12501
9.11264
9.09992
9.08044
9.0549
9.02272
8.98502
8.94369
8.8994
8.85222
8.80137
8.74574
8.6843
8.61609
8.54049
8.45765
8.36782
8.27183
8.1698
8.06276
7.95035
7.83122
7.70648
7.57022
7.42641
7.27899
7.11918
6.95297
6.78891
6.61282
6.42662
6.24424
6.05577
5.86202
1
1
1
1
1
1
1
1
1
1
1
1
1
1
1
1
1
1
1
1
1
1
1
1
1
1
1
1
1
1
1
1
1
1
1
1
1
1
1
1
1
1
1
1
1
1
1
1
1
1
1
1
1
1
1
1
1
1
1.00017
3.69338
8.58353
9.08935
9.08272
9.06576
9.06119
9.04744
9.02016
8.98437
8.94399
8.90009
8.85343
8.80416
8.75177
8.6953
8.63369
8.56603
8.49161
8.41019
8.32167
8.22628
8.12462
8.01587
7.90385
7.78625
7.66479
7.53237
7.39379
7.24921
7.09406
6.93625
6.77511
6.60219
6.42481
6.25321
6.07153
5.88169
1
1
1
1
1
1
1
1
1
1
1
1
1
1
1
1
1
1
1
1
1
1
1
1
1
1
1
1
1
1
1
1
1
1
1
1
1
1
1
1
1
1
1
1
1
1
1
1
1
1
1
1
1
1
1
1
1
1
0.999998
1.51921
7.65862
9.24633
9.08596
9.0452
9.01915
9.00296
8.97272
8.93722
8.8979
8.85426
8.80709
8.75682
8.70337
8.64613
8.58417
8.5168
8.44331
8.36323
8.27625
8.18231
8.08163
7.97382
7.86117
7.74383
7.62417
7.49542
7.36193
7.22126
7.0724
6.91897
6.76043
6.59455
6.42716
6.26026
6.08181
5.89845
1
1
1
1
1
1
1
1
1
1
1
1
1
1
1
1
1
1
1
1
1
1
1
1
1
1
1
1
1
1
1
1
1
1
1
1
1
1
1
1
1
1
1
1
1
1
1
1
1
1
1
1
1
1
1
1
1
1
1
1.02377
5.68922
8.83086
8.90922
8.954
8.97678
8.96087
8.92782
8.89311
8.85507
8.81184
8.76396
8.71255
8.65777
8.59952
8.53701
8.46964
8.39671
8.31775
8.23231
8.14006
8.04102
7.93492
7.82256
7.70596
7.58593
7.45964
7.33056
7.19494
7.05121
6.90122
6.74801
6.59001
6.42854
6.26267
6.08983
5.91616
1
1
1
1
1
1
1
1
1
1
1
1
1
1
1
1
1
1
1
1
1
1
1
1
1
1
1
1
1
1
1
1
1
1
1
1
1
1
1
1
1
1
1
1
1
1
1
1
1
1
1
1
1
1
1
1
1
1
1
0.999927
2.98559
8.24577
8.97086
8.97297
8.96403
8.91813
8.88328
8.85205
8.81548
8.77208
8.7233
8.67057
8.61417
8.55455
8.49114
8.42347
8.35077
8.27261
8.18848
8.09801
8.00098
7.89718
7.78674
7.67179
7.55187
7.42698
7.30101
7.1695
7.02967
6.8851
6.73822
6.58586
6.42727
6.26343
6.1004
5.93572
1
1
1
1
1
1
1
1
1
1
1
1
1
1
1
1
1
1
1
1
1
1
1
1
1
1
1
1
1
1
1
1
1
1
1
1
1
1
1
1
1
1
1
1
1
1
1
1
1
1
1
1
1
1
1
1
1
1
1
0.99998
1.27997
6.9062
9.05023
8.96221
8.904
8.85769
8.83246
8.80751
8.77305
8.7305
8.68224
8.62938
8.57217
8.51165
8.4474
8.37944
8.30694
8.22951
8.14648
8.05754
7.96248
7.86113
7.75339
7.64061
7.52167
7.39806
7.27384
7.14439
7.00817
6.86998
6.72803
6.57976
6.4247
6.26623
6.11287
5.95377
1
1
1
1
1
1
1
1
1
1
1
1
1
1
1
1
1
1
1
1
1
1
1
1
1
1
1
1
1
1
1
1
1
1
1
1
1
1
1
1
1
1
1
1
1
1
1
1
1
1
1
1
1
1
1
1
1
1
1
0.999997
1.00637
4.49344
8.56938
8.83456
8.83102
8.80921
8.79941
8.77499
8.73887
8.69556
8.64663
8.59231
8.53336
8.47108
8.4054
8.3367
8.26403
8.18706
8.10501
8.01757
7.92447
7.82552
7.72074
7.61075
7.49422
7.3731
7.2504
7.12199
6.98946
6.85586
6.71675
6.5727