/*--------------------------------*- C++ -*----------------------------------*\
  =========                 |
  \\      /  F ield         | OpenFOAM: The Open Source CFD Toolbox
   \\    /   O peration     | Website:  https://openfoam.org
    \\  /    A nd           | Version:  7
     \\/     M anipulation  |
\*---------------------------------------------------------------------------*/
FoamFile
{
    version     2.0;
    format      ascii;
    class       volScalarField;
    location    "3.8";
    object      rho;
}
// * * * * * * * * * * * * * * * * * * * * * * * * * * * * * * * * * * * * * //

dimensions      [1 -3 0 0 0 0 0];

internalField   nonuniform List<scalar> 
64512
(
1.40001
1.40001
1.40001
1.40001
1.40001
1.40001
1.40001
1.40001
1.40001
1.40001
1.40001
1.40001
1.40001
1.40001
1.40001
1.40001
1.40001
1.40001
1.40001
1.40001
1.40001
1.40001
1.40001
1.40001
1.40001
1.40001
1.40001
1.40001
1.40001
1.40001
1.40001
1.40001
1.40001
1.40001
1.40001
1.40001
1.40001
1.40001
1.40001
1.40001
1.40001
1.40001
1.40001
1.40001
1.40001
1.40001
1.40001
1.40001
1.43846
4.14522
5.43473
5.43979
5.45383
5.4726
5.4939
5.51679
5.53998
5.56232
5.58329
5.60288
5.62139
5.63924
5.65704
5.67521
5.69384
5.71255
5.73086
5.74848
5.765
5.77996
5.79364
5.80678
5.81963
5.8321
5.84436
5.85673
5.86929
5.88207
5.89508
5.90825
5.92135
5.93399
5.94562
5.95566
5.96376
5.96989
5.9744
5.97801
5.9816
5.98591
5.99122
5.99725
6.00338
6.00884
6.01303
6.01601
1.40001
1.40001
1.40001
1.40001
1.40001
1.40001
1.40001
1.40001
1.40001
1.40001
1.40001
1.40001
1.40001
1.40001
1.40001
1.40001
1.40001
1.40001
1.40001
1.40001
1.40001
1.40001
1.40001
1.40001
1.40001
1.40001
1.40001
1.40001
1.40001
1.40001
1.40001
1.40001
1.40001
1.40001
1.40001
1.40001
1.40001
1.40001
1.40001
1.40001
1.40001
1.40001
1.40001
1.40001
1.40001
1.40001
1.40001
1.40001
1.43357
4.12884
5.42816
5.44062
5.45494
5.47386
5.49492
5.51745
5.54004
5.56163
5.58187
5.60095
5.61929
5.63734
5.65548
5.674
5.69293
5.7119
5.73037
5.74802
5.76446
5.77932
5.79294
5.80604
5.81893
5.83146
5.84378
5.85617
5.86871
5.88144
5.89436
5.90743
5.92045
5.93304
5.94462
5.95461
5.96266
5.96877
5.97332
5.977
5.98067
5.985
5.99023
5.99611
6.00209
6.00745
6.01164
6.01466
1.40001
1.40001
1.40001
1.40001
1.40001
1.40001
1.40001
1.40001
1.40001
1.40001
1.40001
1.40001
1.40001
1.40001
1.40001
1.40001
1.40001
1.40001
1.40001
1.40001
1.40001
1.40001
1.40001
1.40001
1.40001
1.40001
1.40001
1.40001
1.40001
1.40001
1.40001
1.40001
1.40001
1.40001
1.40001
1.40001
1.40001
1.40001
1.40001
1.40001
1.40001
1.40001
1.40001
1.40001
1.40001
1.40001
1.40001
1.40001
1.41847
4.10358
5.42318
5.4351
5.45229
5.47296
5.49522
5.51829
5.54066
5.56145
5.58057
5.59855
5.6162
5.63418
5.65271
5.67175
5.69116
5.71053
5.72921
5.74691
5.76326
5.77797
5.79152
5.80459
5.81757
5.83022
5.84269
5.85515
5.8677
5.88036
5.89316
5.9061
5.91901
5.93154
5.94308
5.95304
5.96102
5.96707
5.97162
5.97537
5.97914
5.98349
5.98864
5.9943
6.00005
6.00524
6.00938
6.01243
1.40001
1.40001
1.40001
1.40001
1.40001
1.40001
1.40001
1.40001
1.40001
1.40001
1.40001
1.40001
1.40001
1.40001
1.40001
1.40001
1.40001
1.40001
1.40001
1.40001
1.40001
1.40001
1.40001
1.40001
1.40001
1.40001
1.40001
1.40001
1.40001
1.40001
1.40001
1.40001
1.40001
1.40001
1.40001
1.40001
1.40001
1.40001
1.40001
1.40001
1.40001
1.40001
1.40001
1.40001
1.40001
1.40001
1.40001
1.40001
1.40152
4.06099
5.41881
5.43036
5.44878
5.47103
5.49467
5.51861
5.54129
5.56178
5.57995
5.59678
5.61349
5.6311
5.64988
5.66946
5.68939
5.70911
5.72788
5.74545
5.76153
5.77594
5.78935
5.80236
5.81546
5.82829
5.84096
5.85355
5.86609
5.87862
5.89123
5.90396
5.91672
5.92916
5.94067
5.95058
5.95852
5.96455
5.96915
5.97304
5.97693
5.9813
5.98627
5.99162
5.99701
6.00194
6.00596
6.00899
1.40001
1.40001
1.40001
1.40001
1.40001
1.40001
1.40001
1.40001
1.40001
1.40001
1.40001
1.40001
1.40001
1.40001
1.40001
1.40001
1.40001
1.40001
1.40001
1.40001
1.40001
1.40001
1.40001
1.40001
1.40001
1.40001
1.40001
1.40001
1.40001
1.40001
1.40001
1.40001
1.40001
1.40001
1.40001
1.40001
1.40001
1.40001
1.40001
1.40001
1.40001
1.40001
1.40001
1.40001
1.40001
1.40001
1.40001
1.40001
1.40005
3.99292
5.41055
5.42583
5.44595
5.46938
5.49411
5.51869
5.54139
5.56124
5.57835
5.59379
5.60908
5.62585
5.64454
5.66459
5.68525
5.70573
5.725
5.74275
5.75874
5.77289
5.78615
5.79908
5.81232
5.8254
5.83839
5.85119
5.8638
5.87622
5.88861
5.90111
5.91367
5.92599
5.93744
5.94733
5.95526
5.96132
5.96602
5.97008
5.97412
5.97848
5.98326
5.98824
5.9932
5.99776
6.00155
6.0045
1.40001
1.40001
1.40001
1.40001
1.40001
1.40001
1.40001
1.40001
1.40001
1.40001
1.40001
1.40001
1.40001
1.40001
1.40001
1.40001
1.40001
1.40001
1.40001
1.40001
1.40001
1.40001
1.40001
1.40001
1.40001
1.40001
1.40001
1.40001
1.40001
1.40001
1.40001
1.40001
1.40001
1.40001
1.40001
1.40001
1.40001
1.40001
1.40001
1.40001
1.40001
1.40001
1.40001
1.40001
1.40001
1.40001
1.40001
1.40001
1.40001
3.90233
5.39828
5.42271
5.44438
5.46785
5.49234
5.51673
5.53937
5.55908
5.57593
5.59085
5.60539
5.62161
5.64018
5.66042
5.68145
5.70232
5.72181
5.73956
5.75538
5.76922
5.78234
5.79518
5.80858
5.82192
5.83522
5.84822
5.86082
5.87306
5.88516
5.89734
5.90965
5.92181
5.93319
5.94308
5.95106
5.95723
5.96211
5.96636
5.97053
5.97488
5.97945
5.98408
5.98861
5.99278
5.99628
5.99909
1.40001
1.40001
1.40001
1.40001
1.40001
1.40001
1.40001
1.40001
1.40001
1.40001
1.40001
1.40001
1.40001
1.40001
1.40001
1.40001
1.40001
1.40001
1.40001
1.40001
1.40001
1.40001
1.40001
1.40001
1.40001
1.40001
1.40001
1.40001
1.40001
1.40001
1.40001
1.40001
1.40001
1.40001
1.40001
1.40001
1.40001
1.40001
1.40001
1.40001
1.40001
1.40001
1.40001
1.40001
1.40001
1.40001
1.40001
1.40001
1.40001
3.79055
5.38199
5.41955
5.44275
5.46638
5.49029
5.51389
5.53598
5.5557
5.57282
5.58787
5.60232
5.61804
5.63606
5.65583
5.67661
5.69756
5.71729
5.73528
5.75123
5.76495
5.77793
5.79057
5.80396
5.81744
5.83103
5.84427
5.85696
5.8691
5.88096
5.89283
5.90485
5.91679
5.92805
5.93791
5.94598
5.95233
5.95743
5.96188
5.96614
5.97043
5.97478
5.97908
5.98322
5.98701
5.99018
5.99284
1.40001
1.40001
1.40001
1.40001
1.40001
1.40001
1.40001
1.40001
1.40001
1.40001
1.40001
1.40001
1.40001
1.40001
1.40001
1.40001
1.40001
1.40001
1.40001
1.40001
1.40001
1.40001
1.40001
1.40001
1.40001
1.40001
1.40001
1.40001
1.40001
1.40001
1.40001
1.40001
1.40001
1.40001
1.40001
1.40001
1.40001
1.40001
1.40001
1.40001
1.40001
1.40001
1.40001
1.40001
1.40001
1.40001
1.40001
1.40001
1.40001
3.65871
5.36232
5.4156
5.44013
5.46453
5.48825
5.51101
5.53203
5.55122
5.56848
5.58398
5.59867
5.61425
5.63187
5.65119
5.6716
5.69246
5.71225
5.73034
5.74641
5.75997
5.77279
5.78521
5.79856
5.81217
5.82604
5.83954
5.85236
5.86441
5.876
5.88751
5.89917
5.91084
5.92196
5.93186
5.94011
5.94674
5.95214
5.95678
5.96107
5.96521
5.96928
5.9732
5.97689
5.98026
5.98304
5.9855
1.40001
1.40001
1.40001
1.40001
1.40001
1.40001
1.40001
1.40001
1.40001
1.40001
1.40001
1.40001
1.40001
1.40001
1.40001
1.40001
1.40001
1.40001
1.40001
1.40001
1.40001
1.40001
1.40001
1.40001
1.40001
1.40001
1.40001
1.40001
1.40001
1.40001
1.40001
1.40001
1.40001
1.40001
1.40001
1.40001
1.40001
1.40001
1.40001
1.40001
1.40001
1.40001
1.40001
1.40001
1.40001
1.40001
1.40001
1.40001
1.40001
3.50792
5.33958
5.41042
5.43601
5.46174
5.48619
5.50893
5.52916
5.54731
5.56394
5.57935
5.59425
5.60995
5.62746
5.64643
5.66637
5.68693
5.70663
5.72472
5.74097
5.75451
5.76724
5.77943
5.7926
5.80615
5.82014
5.83381
5.84673
5.8587
5.87002
5.88114
5.8924
5.90375
5.91472
5.92468
5.93318
5.94016
5.9459
5.95076
5.9551
5.95911
5.96292
5.96649
5.96977
5.97274
5.97514
5.97741
1.40001
1.40001
1.40001
1.40001
1.40001
1.40001
1.40001
1.40001
1.40001
1.40001
1.40001
1.40001
1.40001
1.40001
1.40001
1.40001
1.40001
1.40001
1.40001
1.40001
1.40001
1.40001
1.40001
1.40001
1.40001
1.40001
1.40001
1.40001
1.40001
1.40001
1.40001
1.40001
1.40001
1.40001
1.40001
1.40001
1.40001
1.40001
1.40001
1.40001
1.40001
1.40001
1.40001
1.40001
1.40001
1.40001
1.40001
1.40001
1.40001
3.33941
5.31276
5.40403
5.43061
5.45791
5.48381
5.50757
5.52787
5.54526
5.56073
5.57505
5.58934
5.6048
5.62223
5.64102
5.66063
5.68096
5.70063
5.7187
5.73514
5.74869
5.76132
5.77323
5.78613
5.79954
5.81361
5.82747
5.84053
5.85246
5.86348
5.87412
5.88487
5.89583
5.9066
5.9166
5.92535
5.93268
5.93875
5.94381
5.94818
5.95204
5.95555
5.95874
5.96157
5.96415
5.96619
5.96829
1.40001
1.40001
1.40001
1.40001
1.40001
1.40001
1.40001
1.40001
1.40001
1.40001
1.40001
1.40001
1.40001
1.40001
1.40001
1.40001
1.40001
1.40001
1.40001
1.40001
1.40001
1.40001
1.40001
1.40001
1.40001
1.40001
1.40001
1.40001
1.40001
1.40001
1.40001
1.40001
1.40001
1.40001
1.40001
1.40001
1.40001
1.40001
1.40001
1.40001
1.40001
1.40001
1.40001
1.40001
1.40001
1.40001
1.40001
1.40001
1.40001
3.15426
5.28016
5.39782
5.42497
5.45343
5.48073
5.5061
5.52744
5.54494
5.55962
5.57268
5.5854
5.59966
5.61643
5.63491
5.65425
5.67445
5.69422
5.71231
5.72897
5.7425
5.75491
5.7664
5.77886
5.79201
5.80606
5.82009
5.83332
5.84524
5.85599
5.86617
5.87643
5.88702
5.89765
5.9077
5.91667
5.92431
5.93066
5.93591
5.9403
5.94401
5.94721
5.94999
5.95239
5.95462
5.95639
5.95837
1.40001
1.40001
1.40001
1.40001
1.40001
1.40001
1.40001
1.40001
1.40001
1.40001
1.40001
1.40001
1.40001
1.40001
1.40001
1.40001
1.40001
1.40001
1.40001
1.40001
1.40001
1.40001
1.40001
1.40001
1.40001
1.40001
1.40001
1.40001
1.40001
1.40001
1.40001
1.40001
1.40001
1.40001
1.40001
1.40001
1.40001
1.40001
1.40001
1.40001
1.40001
1.40001
1.40001
1.40001
1.40001
1.40001
1.40001
1.40001
1.40001
2.95262
5.24012
5.39348
5.41997
5.44878
5.47688
5.50394
5.5271
5.54569
5.56057
5.5727
5.58352
5.59569
5.61099
5.6288
5.64784
5.66795
5.68789
5.70607
5.72294
5.73642
5.74842
5.75926
5.77103
5.78374
5.79763
5.81174
5.82508
5.83694
5.8474
5.85711
5.86692
5.87723
5.88777
5.89791
5.90708
5.91497
5.92154
5.92694
5.93134
5.93489
5.93775
5.94009
5.94205
5.94396
5.94551
5.9474
1.40001
1.40001
1.40001
1.40001
1.40001
1.40001
1.40001
1.40001
1.40001
1.40001
1.40001
1.40001
1.40001
1.40001
1.40001
1.40001
1.40001
1.40001
1.40001
1.40001
1.40001
1.40001
1.40001
1.40001
1.40001
1.40001
1.40001
1.40001
1.40001
1.40001
1.40001
1.40001
1.40001
1.40001
1.40001
1.40001
1.40001
1.40001
1.40001
1.40001
1.40001
1.40001
1.40001
1.40001
1.40001
1.40001
1.40001
1.40001
1.40001
2.7353
5.18804
5.39314
5.41678
5.4441
5.47194
5.50007
5.52516
5.54553
5.56145
5.57323
5.58243
5.59215
5.60534
5.62209
5.64079
5.6609
5.68119
5.69968
5.71692
5.73051
5.7421
5.75222
5.76308
5.77518
5.78876
5.8028
5.81611
5.82783
5.83794
5.84716
5.85652
5.86656
5.87703
5.88723
5.89653
5.90455
5.91127
5.91677
5.92119
5.92458
5.92713
5.92904
5.93059
5.93224
5.93365
5.93551
1.40001
1.40001
1.40001
1.40001
1.40001
1.40001
1.40001
1.40001
1.40001
1.40001
1.40001
1.40001
1.40001
1.40001
1.40001
1.40001
1.40001
1.40001
1.40001
1.40001
1.40001
1.40001
1.40001
1.40001
1.40001
1.40001
1.40001
1.40001
1.40001
1.40001
1.40001
1.40001
1.40001
1.40001
1.40001
1.40001
1.40001
1.40001
1.40001
1.40001
1.40001
1.40001
1.40001
1.40001
1.40001
1.40001
1.40001
1.40001
1.40001
2.50251
5.11539
5.39977
5.41664
5.44055
5.46659
5.49452
5.52085
5.5431
5.56066
5.57317
5.58171
5.58954
5.60042
5.61562
5.63361
5.65353
5.67409
5.69295
5.71052
5.72435
5.73559
5.74502
5.7549
5.76625
5.77938
5.79319
5.80633
5.81786
5.82761
5.83635
5.84525
5.855
5.86536
5.87555
5.8849
5.893
5.8998
5.90537
5.90979
5.91304
5.91528
5.91678
5.91792
5.91928
5.92056
5.92234
1.40001
1.40001
1.40001
1.40001
1.40001
1.40001
1.40001
1.40001
1.40001
1.40001
1.40001
1.40001
1.40001
1.40001
1.40001
1.40001
1.40001
1.40001
1.40001
1.40001
1.40001
1.40001
1.40001
1.40001
1.40001
1.40001
1.40001
1.40001
1.40001
1.40001
1.40001
1.40001
1.40001
1.40001
1.40001
1.40001
1.40001
1.40001
1.40001
1.40001
1.40001
1.40001
1.40001
1.40001
1.40001
1.40001
1.40001
1.40001
1.40001
2.26391
5.01423
5.4141
5.42178
5.44078
5.46408
5.49043
5.51685
5.54043
5.5598
5.57382
5.58267
5.58927
5.59787
5.61089
5.62747
5.6466
5.66707
5.68619
5.70393
5.71806
5.72897
5.7377
5.74642
5.75678
5.76921
5.78269
5.79565
5.80705
5.81657
5.82491
5.83333
5.84268
5.85279
5.86286
5.87215
5.88023
5.88702
5.89259
5.89697
5.90008
5.90205
5.90319
5.90399
5.9051
5.90625
5.90794
1.40001
1.40001
1.40001
1.40001
1.40001
1.40001
1.40001
1.40001
1.40001
1.40001
1.40001
1.40001
1.40001
1.40001
1.40001
1.40001
1.40001
1.40001
1.40001
1.40001
1.40001
1.40001
1.40001
1.40001
1.40001
1.40001
1.40001
1.40001
1.40001
1.40001
1.40001
1.40001
1.40001
1.40001
1.40001
1.40001
1.40001
1.40001
1.40001
1.40001
1.40001
1.40001
1.40001
1.40001
1.40001
1.40001
1.40001
1.40001
1.40001
2.0294
4.87564
5.43304
5.42888
5.44254
5.46242
5.48674
5.51255
5.53681
5.5576
5.57345
5.58345
5.58979
5.59698
5.60803
5.62295
5.64084
5.66066
5.6796
5.69701
5.71135
5.72198
5.73011
5.73769
5.74692
5.75847
5.77147
5.78421
5.7955
5.80486
5.81279
5.82065
5.82948
5.83922
5.84907
5.85824
5.86623
5.87294
5.87842
5.88267
5.8856
5.88734
5.88818
5.88867
5.8895
5.89046
5.89197
1.40001
1.40001
1.40001
1.40001
1.40001
1.40001
1.40001
1.40001
1.40001
1.40001
1.40001
1.40001
1.40001
1.40001
1.40001
1.40001
1.40001
1.40001
1.40001
1.40001
1.40001
1.40001
1.40001
1.40001
1.40001
1.40001
1.40001
1.40001
1.40001
1.40001
1.40001
1.40001
1.40001
1.40001
1.40001
1.40001
1.40001
1.40001
1.40001
1.40001
1.40001
1.40001
1.40001
1.40001
1.40001
1.40001
1.40001
1.40001
1.40001
1.81346
4.70491
5.45223
5.44038
5.45075
5.46543
5.48578
5.50892
5.53211
5.55307
5.57031
5.58239
5.59026
5.59727
5.60688
5.62004
5.63616
5.65472
5.67301
5.68972
5.70424
5.71483
5.72264
5.72916
5.73705
5.74734
5.75955
5.77189
5.78304
5.7923
5.79993
5.80723
5.81544
5.82469
5.83419
5.84309
5.85085
5.85733
5.86257
5.86661
5.86937
5.87096
5.87162
5.87189
5.87248
5.8732
5.87448
1.40001
1.40001
1.40001
1.40001
1.40001
1.40001
1.40001
1.40001
1.40001
1.40001
1.40001
1.40001
1.40001
1.40001
1.40001
1.40001
1.40001
1.40001
1.40001
1.40001
1.40001
1.40001
1.40001
1.40001
1.40001
1.40001
1.40001
1.40001
1.40001
1.40001
1.40001
1.40001
1.40001
1.40001
1.40001
1.40001
1.40001
1.40001
1.40001
1.40001
1.40001
1.40001
1.40001
1.40001
1.40001
1.40001
1.40001
1.40001
1.40001
1.62163
4.49202
5.45511
5.43834
5.44909
5.46061
5.47843
5.4999
5.52281
5.54463
5.56383
5.57827
5.58843
5.59673
5.60604
5.61782
5.63201
5.64886
5.66614
5.682
5.69661
5.70741
5.71515
5.72074
5.72718
5.73592
5.74706
5.75889
5.76987
5.77907
5.78643
5.79313
5.80056
5.80909
5.81806
5.82656
5.83399
5.84015
5.84509
5.84888
5.85144
5.85288
5.85338
5.85341
5.85367
5.85404
5.85498
1.40001
1.40001
1.40001
1.40001
1.40001
1.40001
1.40001
1.40001
1.40001
1.40001
1.40001
1.40001
1.40001
1.40001
1.40001
1.40001
1.40001
1.40001
1.40001
1.40001
1.40001
1.40001
1.40001
1.40001
1.40001
1.40001
1.40001
1.40001
1.40001
1.40001
1.40001
1.40001
1.40001
1.40001
1.40001
1.40001
1.40001
1.40001
1.40001
1.40001
1.40001
1.40001
1.40001
1.40001
1.40001
1.40001
1.40001
1.40001
1.40001
1.46379
4.24299
5.41922
5.42202
5.43711
5.45292
5.47155
5.49107
5.51173
5.53238
5.55208
5.56898
5.58235
5.59331
5.60371
5.6151
5.62784
5.64283
5.65881
5.67373
5.68809
5.6992
5.70719
5.7122
5.71736
5.7245
5.73437
5.74549
5.75615
5.76517
5.7722
5.7782
5.78468
5.79231
5.80058
5.80854
5.81549
5.82119
5.82569
5.82913
5.83147
5.83277
5.83315
5.83305
5.83301
5.83299
5.83365
1.40001
1.40001
1.40001
1.40001
1.40001
1.40001
1.40001
1.40001
1.40001
1.40001
1.40001
1.40001
1.40001
1.40001
1.40001
1.40001
1.40001
1.40001
1.40001
1.40001
1.40001
1.40001
1.40001
1.40001
1.40001
1.40001
1.40001
1.40001
1.40001
1.40001
1.40001
1.40001
1.40001
1.40001
1.40001
1.40001
1.40001
1.40001
1.40001
1.40001
1.40001
1.40001
1.40001
1.40001
1.40001
1.40001
1.40001
1.40001
1.40001
1.40257
3.92548
5.34988
5.38996
5.41234
5.43172
5.45151
5.47242
5.49438
5.51629
5.53708
5.55518
5.57099
5.58511
5.59786
5.61003
5.62225
5.63577
5.65049
5.66453
5.67836
5.68984
5.69837
5.70331
5.70754
5.7132
5.7216
5.73175
5.74184
5.75051
5.75712
5.76235
5.76778
5.77435
5.78172
5.78897
5.79531
5.80045
5.80445
5.80748
5.80954
5.81061
5.81082
5.81043
5.80988
5.80944
5.80977
1.40001
1.40001
1.40001
1.40001
1.40001
1.40001
1.40001
1.40001
1.40001
1.40001
1.40001
1.40001
1.40001
1.40001
1.40001
1.40001
1.40001
1.40001
1.40001
1.40001
1.40001
1.40001
1.40001
1.40001
1.40001
1.40001
1.40001
1.40001
1.40001
1.40001
1.40001
1.40001
1.40001
1.40001
1.40001
1.40001
1.40001
1.40001
1.40001
1.40001
1.40001
1.40001
1.40001
1.40001
1.40001
1.40001
1.40001
1.40001
1.40001
1.40002
3.58823
5.28812
5.3562
5.39088
5.41715
5.43915
5.45996
5.48045
5.50059
5.52026
5.53876
5.556
5.57191
5.58667
5.60059
5.61359
5.62663
5.64052
5.65397
5.66718
5.67897
5.6882
5.6936
5.69736
5.70181
5.70871
5.71765
5.72695
5.73507
5.74115
5.74558
5.74986
5.75518
5.76144
5.76774
5.77326
5.77764
5.78096
5.78343
5.78508
5.78587
5.78587
5.78518
5.78424
5.78341
5.78353
1.40001
1.40001
1.40001
1.40001
1.40001
1.40001
1.40001
1.40001
1.40001
1.40001
1.40001
1.40001
1.40001
1.40001
1.40001
1.40001
1.40001
1.40001
1.40001
1.40001
1.40001
1.40001
1.40001
1.40001
1.40001
1.40001
1.40001
1.40001
1.40001
1.40001
1.40001
1.40001
1.40001
1.40001
1.40001
1.40001
1.40001
1.40001
1.40001
1.40001
1.40001
1.40001
1.40001
1.40001
1.40001
1.40001
1.40001
1.40001
1.40001
1.40001
3.21508
5.21797
5.33646
5.37137
5.399
5.42287
5.44458
5.46542
5.48571
5.50557
5.52416
5.54111
5.55724
5.57275
5.58737
5.6014
5.61471
5.62837
5.64151
5.65419
5.66627
5.67621
5.68255
5.68641
5.69008
5.69558
5.70312
5.71138
5.71873
5.72415
5.72774
5.73083
5.73473
5.73962
5.74472
5.74922
5.75274
5.75533
5.75718
5.75831
5.75871
5.75821
5.75687
5.75531
5.75392
5.75366
1.40001
1.40001
1.40001
1.40001
1.40001
1.40001
1.40001
1.40001
1.40001
1.40001
1.40001
1.40001
1.40001
1.40001
1.40001
1.40001
1.40001
1.40001
1.40001
1.40001
1.40001
1.40001
1.40001
1.40001
1.40001
1.40001
1.40001
1.40001
1.40001
1.40001
1.40001
1.40001
1.40001
1.40001
1.40001
1.40001
1.40001
1.40001
1.40001
1.40001
1.40001
1.40001
1.40001
1.40001
1.40001
1.40001
1.40001
1.40001
1.40001
1.40001
2.82194
5.13785
5.33978
5.371
5.39824
5.41788
5.43494
5.45244
5.47066
5.48954
5.50825
5.52558
5.54169
5.55719
5.57236
5.58628
5.60002
5.61315
5.62651
5.63897
5.65128
5.66189
5.66952
5.67404
5.67749
5.68186
5.68796
5.695
5.70144
5.70613
5.70886
5.71065
5.71293
5.71619
5.71982
5.72308
5.72552
5.7271
5.728
5.72832
5.728
5.72679
5.72486
5.72275
5.72099
5.72056
1.40001
1.40001
1.40001
1.40001
1.40001
1.40001
1.40001
1.40001
1.40001
1.40001
1.40001
1.40001
1.40001
1.40001
1.40001
1.40001
1.40001
1.40001
1.40001
1.40001
1.40001
1.40001
1.40001
1.40001
1.40001
1.40001
1.40001
1.40001
1.40001
1.40001
1.40001
1.40001
1.40001
1.40001
1.40001
1.40001
1.40001
1.40001
1.40001
1.40001
1.40001
1.40001
1.40001
1.40001
1.40001
1.40001
1.40001
1.40001
1.40001
1.40001
2.43171
5.00783
5.37163
5.38298
5.39988
5.41405
5.42988
5.44603
5.46209
5.47862
5.49478
5.51035
5.52558
5.54069
5.55553
5.57011
5.5833
5.59665
5.60935
5.62162
5.63412
5.64515
5.65405
5.65969
5.66346
5.66713
5.67193
5.67767
5.68307
5.68687
5.68867
5.6891
5.68963
5.69101
5.69291
5.69466
5.69582
5.69626
5.69617
5.69552
5.6941
5.69179
5.68875
5.68554
5.683
5.68202
1.40001
1.40001
1.40001
1.40001
1.40001
1.40001
1.40001
1.40001
1.40001
1.40001
1.40001
1.40001
1.40001
1.40001
1.40001
1.40001
1.40001
1.40001
1.40001
1.40001
1.40001
1.40001
1.40001
1.40001
1.40001
1.40001
1.40001
1.40001
1.40001
1.40001
1.40001
1.40001
1.40001
1.40001
1.40001
1.40001
1.40001
1.40001
1.40001
1.40001
1.40001
1.40001
1.40001
1.40001
1.40001
1.40001
1.40001
1.40001
1.40001
1.40001
2.02663
4.82275
5.43894
5.41623
5.42651
5.43168
5.43727
5.44478
5.45637
5.47063
5.48557
5.49974
5.51282
5.52579
5.53889
5.55233
5.56539
5.57738
5.59071
5.60284
5.61459
5.6259
5.63582
5.64278
5.64735
5.65082
5.65464
5.65913
5.66344
5.66628
5.66711
5.66611
5.66481
5.66408
5.664
5.66396
5.66355
5.66248
5.66073
5.6583
5.65512
5.65127
5.64705
5.64294
5.63983
5.63866
1.40001
1.40001
1.40001
1.40001
1.40001
1.40001
1.40001
1.40001
1.40001
1.40001
1.40001
1.40001
1.40001
1.40001
1.40001
1.40001
1.40001
1.40001
1.40001
1.40001
1.40001
1.40001
1.40001
1.40001
1.40001
1.40001
1.40001
1.40001
1.40001
1.40001
1.40001
1.40001
1.40001
1.40001
1.40001
1.40001
1.40001
1.40001
1.40001
1.40001
1.40001
1.40001
1.40001
1.40001
1.40001
1.40001
1.40001
1.40001
1.40001
1.40001
1.63798
4.58037
5.49044
5.43885
5.4359
5.43744
5.44277
5.45026
5.45969
5.47013
5.48132
5.49232
5.50304
5.5138
5.52481
5.53619
5.54773
5.55887
5.56972
5.58252
5.59394
5.60461
5.61483
5.62302
5.62861
5.63234
5.63558
5.63904
5.64219
5.64409
5.64387
5.64152
5.63831
5.6353
5.633
5.63076
5.62831
5.62528
5.62159
5.61722
5.61212
5.60627
5.59979
5.59343
5.58854
5.586
1.40001
1.40001
1.40001
1.40001
1.40001
1.40001
1.40001
1.40001
1.40001
1.40001
1.40001
1.40001
1.40001
1.40001
1.40001
1.40001
1.40001
1.40001
1.40001
1.40001
1.40001
1.40001
1.40001
1.40001
1.40001
1.40001
1.40001
1.40001
1.40001
1.40001
1.40001
1.40001
1.40001
1.40001
1.40001
1.40001
1.40001
1.40001
1.40001
1.40001
1.40001
1.40001
1.40001
1.40001
1.40001
1.40001
1.40001
1.40001
1.40001
1.40001
1.41462
4.18705
5.42435
5.39594
5.42041
5.43413
5.4447
5.45342
5.46308
5.47286
5.48205
5.49051
5.49811
5.50534
5.51321
5.52221
5.53194
5.54174
5.55136
5.5614
5.57206
5.58207
5.59181
5.60054
5.60703
5.61131
5.61435
5.61704
5.61912
5.62014
5.61889
5.61526
5.61007
5.60475
5.59994
5.59498
5.59003
5.58449
5.57807
5.57061
5.56205
5.55265
5.54306
5.53447
5.52827
5.52558
1.40001
1.40001
1.40001
1.40001
1.40001
1.40001
1.40001
1.40001
1.40001
1.40001
1.40001
1.40001
1.40001
1.40001
1.40001
1.40001
1.40001
1.40001
1.40001
1.40001
1.40001
1.40001
1.40001
1.40001
1.40001
1.40001
1.40001
1.40001
1.40001
1.40001
1.40001
1.40001
1.40001
1.40001
1.40001
1.40001
1.40001
1.40001
1.40001
1.40001
1.40001
1.40001
1.40001
1.40001
1.40001
1.40001
1.40001
1.40001
1.40001
1.40001
1.40004
3.6715
5.27317
5.34809
5.38829
5.4121
5.43202
5.44702
5.45947
5.47052
5.4815
5.49023
5.4965
5.50113
5.50574
5.51149
5.51844
5.52617
5.53387
5.542
5.55093
5.55949
5.56758
5.57605
5.58298
5.58762
5.59061
5.59271
5.59393
5.59399
5.59179
5.58701
5.57994
5.57226
5.56453
5.5565
5.54842
5.53958
5.52956
5.51832
5.50599
5.49284
5.47911
5.46525
5.45372
5.4465
1.40001
1.40001
1.40001
1.40001
1.40001
1.40001
1.40001
1.40001
1.40001
1.40001
1.40001
1.40001
1.40001
1.40001
1.40001
1.40001
1.40001
1.40001
1.40001
1.40001
1.40001
1.40001
1.40001
1.40001
1.40001
1.40001
1.40001
1.40001
1.40001
1.40001
1.40001
1.40001
1.40001
1.40001
1.40001
1.40001
1.40001
1.40001
1.40001
1.40001
1.40001
1.40001
1.40001
1.40001
1.40001
1.40001
1.40001
1.40001
1.40001
1.40001
1.4
3.1941
5.16671
5.29902
5.35199
5.39075
5.41418
5.43067
5.4474
5.4632
5.47581
5.48587
5.49345
5.49794
5.50079
5.50395
5.5082
5.51337
5.51864
5.52402
5.53062
5.53761
5.54401
5.55056
5.55704
5.56175
5.5646
5.56613
5.56665
5.56569
5.56255
5.55672
5.54799
5.53786
5.52678
5.51526
5.50335
5.49043
5.47593
5.45961
5.44107
5.42007
5.39749
5.37593
5.35899
5.35207
1.40001
1.40001
1.40001
1.40001
1.40001
1.40001
1.40001
1.40001
1.40001
1.40001
1.40001
1.40001
1.40001
1.40001
1.40001
1.40001
1.40001
1.40001
1.40001
1.40001
1.40001
1.40001
1.40001
1.40001
1.40001
1.40001
1.40001
1.40001
1.40001
1.40001
1.40001
1.40001
1.40001
1.40001
1.40001
1.40001
1.40001
1.40001
1.40001
1.40001
1.40001
1.40001
1.40001
1.40001
1.40001
1.40001
1.40001
1.40001
1.40001
1.40001
1.4
2.7028
5.01047
5.29944
5.34547
5.37356
5.39544
5.41495
5.43088
5.44632
5.46129
5.47496
5.48485
5.49128
5.49496
5.49744
5.49998
5.50289
5.50571
5.50831
5.51179
5.51627
5.52095
5.52544
5.53016
5.53404
5.53644
5.53736
5.53711
5.53505
5.53099
5.5241
5.51392
5.50132
5.48666
5.47116
5.45474
5.43679
5.41644
5.39315
5.36653
5.33696
5.30515
5.27273
5.23924
5.21192
1.40001
1.40001
1.40001
1.40001
1.40001
1.40001
1.40001
1.40001
1.40001
1.40001
1.40001
1.40001
1.40001
1.40001
1.40001
1.40001
1.40001
1.40001
1.40001
1.40001
1.40001
1.40001
1.40001
1.40001
1.40001
1.40001
1.40001
1.40001
1.40001
1.40001
1.40001
1.40001
1.40001
1.40001
1.40001
1.40001
1.40001
1.40001
1.40001
1.40001
1.40001
1.40001
1.40001
1.40001
1.40001
1.40001
1.40001
1.40001
1.40001
1.40001
1.40001
2.19143
4.83737
5.35465
5.35723
5.36885
5.38239
5.39865
5.41455
5.4294
5.44399
5.45763
5.46983
5.47937
5.48537
5.48913
5.49176
5.49363
5.49465
5.49492
5.49541
5.49671
5.49871
5.50089
5.50328
5.50544
5.50674
5.50694
5.50563
5.50247
5.49733
5.48926
5.47756
5.46248
5.44438
5.42437
5.40261
5.37858
5.35118
5.31961
5.28274
5.23898
5.18504
5.12113
5.0586
5.01421
1.40001
1.40001
1.40001
1.40001
1.40001
1.40001
1.40001
1.40001
1.40001
1.40001
1.40001
1.40001
1.40001
1.40001
1.40001
1.40001
1.40001
1.40001
1.40001
1.40001
1.40001
1.40001
1.40001
1.40001
1.40001
1.40001
1.40001
1.40001
1.40001
1.40001
1.40001
1.40001
1.40001
1.40001
1.40001
1.40001
1.40001
1.40001
1.40001
1.40001
1.40001
1.40001
1.40001
1.40001
1.40001
1.40001
1.40001
1.40001
1.40001
1.40001
1.40001
1.69236
4.63812
5.45174
5.3798
5.3731
5.37729
5.38732
5.39933
5.41247
5.4266
5.44012
5.45233
5.46259
5.47074
5.47652
5.48054
5.48291
5.48351
5.48262
5.4809
5.47914
5.47786
5.47709
5.47682
5.47656
5.47609
5.47484
5.47224
5.46793
5.4615
5.45211
5.43878
5.42129
5.39976
5.37498
5.34726
5.31624
5.2805
5.23837
5.18701
5.12329
5.04475
4.9494
4.84163
4.76323
1.40001
1.40001
1.40001
1.40001
1.40001
1.40001
1.40001
1.40001
1.40001
1.40001
1.40001
1.40001
1.40001
1.40001
1.40001
1.40001
1.40001
1.40001
1.40001
1.40001
1.40001
1.40001
1.40001
1.40001
1.40001
1.40001
1.40001
1.40001
1.40001
1.40001
1.40001
1.40001
1.40001
1.40001
1.40001
1.40001
1.40001
1.40001
1.40001
1.40001
1.40001
1.40001
1.40001
1.40001
1.40001
1.40001
1.40001
1.40001
1.40001
1.40001
1.40001
1.41978
4.14646
5.37873
5.35573
5.36946
5.37548
5.3838
5.39213
5.40092
5.41152
5.42298
5.43441
5.4448
5.45345
5.46031
5.46568
5.46937
5.47075
5.46993
5.46719
5.46325
5.45891
5.45487
5.45142
5.44845
5.44541
5.44203
5.43765
5.43186
5.42387
5.41288
5.39776
5.37786
5.35287
5.32321
5.2891
5.25027
5.20487
5.1505
5.08319
4.99813
4.88344
4.70998
4.36412
3.45528
1.40001
1.40001
1.40001
1.40001
1.40001
1.40001
1.40001
1.40001
1.40001
1.40001
1.40001
1.40001
1.40001
1.40001
1.40001
1.40001
1.40001
1.40001
1.40001
1.40001
1.40001
1.40001
1.40001
1.40001
1.40001
1.40001
1.40001
1.40001
1.40001
1.40001
1.40001
1.40001
1.40001
1.40001
1.40001
1.40001
1.40001
1.40001
1.40001
1.40001
1.40001
1.40001
1.40001
1.40001
1.40001
1.40001
1.40001
1.40001
1.40001
1.40001
1.40001
1.4
3.50196
5.21018
5.31096
5.3483
5.36815
5.37835
5.38635
5.39276
5.40001
5.40831
5.41727
5.42627
5.43455
5.44152
5.4473
5.45197
5.45462
5.4549
5.45234
5.44762
5.44121
5.43427
5.42755
5.42139
5.41533
5.40904
5.40218
5.39426
5.38441
5.37159
5.35453
5.33222
5.30388
5.26942
5.2288
5.18168
5.12595
5.05823
4.97283
4.85954
4.70005
4.44241
4.03129
3.01315
1.40001
1.40001
1.40001
1.40001
1.40001
1.40001
1.40001
1.40001
1.40001
1.40001
1.40001
1.40001
1.40001
1.40001
1.40001
1.40001
1.40001
1.40001
1.40001
1.40001
1.40001
1.40001
1.40001
1.40001
1.40001
1.40001
1.40001
1.40001
1.40001
1.40001
1.40001
1.40001
1.40001
1.40001
1.40001
1.40001
1.40001
1.40001
1.40001
1.40001
1.40001
1.40001
1.40001
1.40001
1.40001
1.40001
1.40001
1.40001
1.40001
1.40001
1.40001
1.4
2.91373
5.06545
5.29082
5.33275
5.35823
5.37051
5.37628
5.38298
5.38957
5.3961
5.40275
5.40962
5.41634
5.42236
5.4275
5.43196
5.4353
5.43664
5.43506
5.43072
5.42363
5.41482
5.4052
5.3958
5.38668
5.37693
5.36691
5.35613
5.34379
5.32877
5.3095
5.28468
5.25306
5.214
5.16703
5.11156
5.04524
4.96414
4.86066
4.72449
4.52796
4.25726
3.71458
2.87638
1.40001
1.40001
1.40001
1.40001
1.40001
1.40001
1.40001
1.40001
1.40001
1.40001
1.40001
1.40001
1.40001
1.40001
1.40001
1.40001
1.40001
1.40001
1.40001
1.40001
1.40001
1.40001
1.40001
1.40001
1.40001
1.40001
1.40001
1.40001
1.40001
1.40001
1.40001
1.40001
1.40001
1.40001
1.40001
1.40001
1.40001
1.40001
1.40001
1.40001
1.40001
1.40001
1.40001
1.40001
1.40001
1.40001
1.40001
1.40001
1.40001
1.40001
1.40001
1.4
2.31074
4.85848
5.3221
5.3355
5.34772
5.35734
5.36596
5.37356
5.38025
5.38623
5.39148
5.39614
5.40035
5.4042
5.40775
5.41104
5.41378
5.41534
5.41479
5.4114
5.40476
5.39531
5.38394
5.37174
5.35941
5.34632
5.33251
5.31808
5.30241
5.28457
5.26281
5.23545
5.20074
5.15753
5.10474
5.04152
4.96505
4.87189
4.75234
4.59847
4.37952
4.07296
3.5403
2.85661
1.40001
1.40001
1.40001
1.40001
1.40001
1.40001
1.40001
1.40001
1.40001
1.40001
1.40001
1.40001
1.40001
1.40001
1.40001
1.40001
1.40001
1.40001
1.40001
1.40001
1.40001
1.40001
1.40001
1.40001
1.40001
1.40001
1.40001
1.40001
1.40001
1.40001
1.40001
1.40001
1.40001
1.40001
1.40001
1.40001
1.40001
1.40001
1.40001
1.40001
1.40001
1.40001
1.40001
1.40001
1.40001
1.40001
1.40001
1.40001
1.40001
1.40001
1.40001
1.40001
1.73453
4.65784
5.40446
5.34387
5.33535
5.34385
5.35356
5.36176
5.36882
5.37497
5.38013
5.38395
5.38644
5.38808
5.38936
5.39053
5.39163
5.39237
5.39195
5.3894
5.38366
5.37452
5.3626
5.34847
5.33328
5.31719
5.29952
5.28105
5.26145
5.24003
5.21519
5.18508
5.14734
5.10044
5.04252
4.97259
4.88736
4.78377
4.65223
4.48268
4.25489
3.933
3.45597
2.9127
1.40001
1.40001
1.40001
1.40001
1.40001
1.40001
1.40001
1.40001
1.40001
1.40001
1.40001
1.40001
1.40001
1.40001
1.40001
1.40001
1.40001
1.40001
1.40001
1.40001
1.40001
1.40001
1.40001
1.40001
1.40001
1.40001
1.40001
1.40001
1.40001
1.40001
1.40001
1.40001
1.40001
1.40001
1.40001
1.40001
1.40001
1.40001
1.40001
1.40001
1.40001
1.40001
1.40001
1.40001
1.40001
1.40001
1.40001
1.40001
1.40001
1.40001
1.40001
1.40001
1.42495
4.10191
5.326
5.30987
5.32185
5.33281
5.34206
5.34937
5.356
5.36219
5.36771
5.37169
5.3736
5.37385
5.37299
5.37142
5.37005
5.36907
5.36768
5.36508
5.35995
5.35142
5.33981
5.32499
5.30795
5.28931
5.26826
5.24572
5.22174
5.19604
5.1673
5.13397
5.09327
5.04328
4.98117
4.90584
4.81379
4.70182
4.56223
4.38339
4.15098
3.83888
3.42913
2.98136
1.40001
1.40001
1.40001
1.40001
1.40001
1.40001
1.40001
1.40001
1.40001
1.40001
1.40001
1.40001
1.40001
1.40001
1.40001
1.40001
1.40001
1.40001
1.40001
1.40001
1.40001
1.40001
1.40001
1.40001
1.40001
1.40001
1.40001
1.40001
1.40001
1.40001
1.40001
1.40001
1.40001
1.40001
1.40001
1.40001
1.40001
1.40001
1.40001
1.40001
1.40001