/*--------------------------------*- C++ -*----------------------------------*\
  =========                 |
  \\      /  F ield         | OpenFOAM: The Open Source CFD Toolbox
   \\    /   O peration     | Website:  https://openfoam.org
    \\  /    A nd           | Version:  7
     \\/     M anipulation  |
\*---------------------------------------------------------------------------*/
FoamFile
{
    version     2.0;
    format      ascii;
    class       volScalarField;
    location    "3.8";
    object      T;
}
// * * * * * * * * * * * * * * * * * * * * * * * * * * * * * * * * * * * * * //

dimensions      [0 0 0 1 0 0 0];

internalField   nonuniform List<scalar> 
64512
(
1
1
1
1
1
1
1
1
1
1
1
1
1
1
1
1
1
1
1
1
1
1
1
1
1
1
1
1
1
1
1
1
1
1
1
1
1
1
1
1
1
1
1
1
1
1
1
1
1.03765
2.31463
2.68172
2.69264
2.69953
2.70484
2.70907
2.71238
2.71487
2.71697
2.71933
2.72259
2.72711
2.73265
2.73848
2.74368
2.74766
2.75039
2.75231
2.75401
2.75593
2.75834
2.7613
2.76471
2.76816
2.77117
2.77356
2.7755
2.7773
2.77929
2.78167
2.78441
2.78727
2.78993
2.79221
2.79405
2.79553
2.79674
2.79775
2.79865
2.79962
2.80085
2.80251
2.80459
2.80686
2.8089
2.81033
2.81111
1
1
1
1
1
1
1
1
1
1
1
1
1
1
1
1
1
1
1
1
1
1
1
1
1
1
1
1
1
1
1
1
1
1
1
1
1
1
1
1
1
1
1
1
1
1
1
1
1.03348
2.31148
2.68356
2.69389
2.69984
2.70496
2.70904
2.71222
2.71463
2.71667
2.71899
2.72223
2.72676
2.73233
2.73819
2.74341
2.74744
2.75022
2.75219
2.75391
2.75584
2.75824
2.7612
2.7646
2.76805
2.77106
2.77346
2.77539
2.77719
2.77917
2.78154
2.78427
2.7871
2.78976
2.79202
2.79385
2.79533
2.79653
2.79755
2.79847
2.79945
2.80068
2.80233
2.80438
2.80662
2.80864
2.81007
2.81085
1
1
1
1
1
1
1
1
1
1
1
1
1
1
1
1
1
1
1
1
1
1
1
1
1
1
1
1
1
1
1
1
1
1
1
1
1
1
1
1
1
1
1
1
1
1
1
1
1.01939
2.3053
2.68708
2.69446
2.69983
2.70461
2.70855
2.71167
2.71409
2.71621
2.71862
2.72189
2.72637
2.73186
2.73764
2.74284
2.7469
2.74979
2.75187
2.75368
2.75566
2.75807
2.76103
2.76442
2.76786
2.77086
2.77326
2.7752
2.77699
2.77897
2.78133
2.78404
2.78685
2.78949
2.79174
2.79356
2.79502
2.79622
2.79724
2.79817
2.79917
2.80041
2.80204
2.80406
2.80624
2.80822
2.80965
2.81043
1
1
1
1
1
1
1
1
1
1
1
1
1
1
1
1
1
1
1
1
1
1
1
1
1
1
1
1
1
1
1
1
1
1
1
1
1
1
1
1
1
1
1
1
1
1
1
1
1.00103
2.28995
2.68821
2.69476
2.69965
2.70394
2.70766
2.71083
2.71348
2.71587
2.71852
2.72189
2.72624
2.73151
2.73706
2.74211
2.74617
2.74919
2.75142
2.75336
2.75542
2.75785
2.76082
2.76419
2.7676
2.77059
2.77297
2.7749
2.77669
2.77865
2.78099
2.78367
2.78646
2.78907
2.79129
2.7931
2.79455
2.79575
2.79679
2.79775
2.79878
2.80002
2.80163
2.80357
2.80569
2.80761
2.80901
2.80979
1
1
1
1
1
1
1
1
1
1
1
1
1
1
1
1
1
1
1
1
1
1
1
1
1
1
1
1
1
1
1
1
1
1
1
1
1
1
1
1
1
1
1
1
1
1
1
1
1.00001
2.26951
2.68759
2.69421
2.69893
2.70302
2.7067
2.71004
2.71299
2.71572
2.71857
2.72194
2.72607
2.73092
2.73607
2.74086
2.74491
2.74811
2.7506
2.75278
2.75501
2.75752
2.76052
2.76386
2.76724
2.77019
2.77256
2.77448
2.77626
2.77822
2.78054
2.78319
2.78594
2.78851
2.79071
2.7925
2.79395
2.79516
2.79622
2.79722
2.79827
2.79952
2.80109
2.80297
2.80499
2.80684
2.80819
2.80895
1
1
1
1
1
1
1
1
1
1
1
1
1
1
1
1
1
1
1
1
1
1
1
1
1
1
1
1
1
1
1
1
1
1
1
1
1
1
1
1
1
1
1
1
1
1
1
1
1
2.24324
2.68682
2.69337
2.69775
2.70174
2.70548
2.70908
2.71245
2.71566
2.71888
2.72235
2.7263
2.73075
2.73543
2.73987
2.74377
2.74703
2.7497
2.75209
2.75449
2.75712
2.76018
2.76352
2.76687
2.76975
2.77208
2.77396
2.77571
2.77764
2.77994
2.78256
2.78526
2.78779
2.78995
2.79172
2.79317
2.79441
2.7955
2.79654
2.79763
2.79888
2.80041
2.80221
2.80416
2.80592
2.80721
2.80795
1
1
1
1
1
1
1
1
1
1
1
1
1
1
1
1
1
1
1
1
1
1
1
1
1
1
1
1
1
1
1
1
1
1
1
1
1
1
1
1
1
1
1
1
1
1
1
1
1
2.2101
2.6858
2.69245
2.69641
2.70034
2.70424
2.70813
2.71191
2.71557
2.71918
2.72289
2.72674
2.73084
2.73503
2.73901
2.7426
2.74578
2.74856
2.75116
2.75381
2.75661
2.75978
2.76311
2.7664
2.7692
2.77145
2.77327
2.77499
2.77691
2.7792
2.7818
2.78446
2.78692
2.78903
2.79078
2.79223
2.7935
2.79465
2.79573
2.79683
2.79807
2.79956
2.8013
2.80316
2.80486
2.80608
2.80679
1
1
1
1
1
1
1
1
1
1
1
1
1
1
1
1
1
1
1
1
1
1
1
1
1
1
1
1
1
1
1
1
1
1
1
1
1
1
1
1
1
1
1
1
1
1
1
1
1
2.16945
2.68385
2.69166
2.69522
2.69906
2.70299
2.70702
2.71107
2.71511
2.7191
2.72308
2.72702
2.73097
2.73484
2.73841
2.74164
2.74463
2.74737
2.75007
2.75292
2.7559
2.75922
2.76259
2.76585
2.76856
2.77071
2.77246
2.77413
2.77603
2.77831
2.78089
2.78351
2.7859
2.78796
2.78968
2.79115
2.79247
2.79368
2.7948
2.79591
2.79712
2.79855
2.80022
2.802
2.8036
2.80475
2.80543
1
1
1
1
1
1
1
1
1
1
1
1
1
1
1
1
1
1
1
1
1
1
1
1
1
1
1
1
1
1
1
1
1
1
1
1
1
1
1
1
1
1
1
1
1
1
1
1
1
2.1206
2.67994
2.69128
2.69438
2.69794
2.70168
2.70564
2.70977
2.71407
2.71848
2.72281
2.727
2.73102
2.73477
2.73805
2.74091
2.74357
2.74614
2.7488
2.75178
2.75496
2.75847
2.76196
2.76522
2.76783
2.76985
2.77148
2.77308
2.77494
2.77722
2.77978
2.78236
2.78469
2.78668
2.78837
2.78988
2.79126
2.79253
2.79369
2.79481
2.79599
2.79737
2.79897
2.80067
2.80221
2.80329
2.80393
1
1
1
1
1
1
1
1
1
1
1
1
1
1
1
1
1
1
1
1
1
1
1
1
1
1
1
1
1
1
1
1
1
1
1
1
1
1
1
1
1
1
1
1
1
1
1
1
1
2.06287
2.67276
2.69142
2.69384
2.69694
2.70026
2.70388
2.70781
2.71216
2.71694
2.72183
2.72649
2.73078
2.73461
2.73776
2.7403
2.74261
2.74489
2.74739
2.7504
2.75374
2.75748
2.76114
2.76446
2.76701
2.76891
2.77041
2.77191
2.77373
2.77599
2.77854
2.78107
2.78333
2.78525
2.78691
2.78844
2.78988
2.79121
2.79242
2.79354
2.79468
2.796
2.79752
2.79914
2.8006
2.80162
2.80223
1
1
1
1
1
1
1
1
1
1
1
1
1
1
1
1
1
1
1
1
1
1
1
1
1
1
1
1
1
1
1
1
1
1
1
1
1
1
1
1
1
1
1
1
1
1
1
1
1
1.99541
2.66096
2.69182
2.69347
2.69605
2.69879
2.70186
2.70531
2.70941
2.71435
2.71981
2.72518
2.73008
2.73425
2.73743
2.73974
2.7417
2.74363
2.74583
2.74875
2.75217
2.75611
2.76
2.76346
2.766
2.76779
2.76917
2.77056
2.77231
2.77454
2.77709
2.7796
2.78181
2.78368
2.78531
2.78685
2.78834
2.78973
2.79096
2.79208
2.79318
2.79443
2.79588
2.79742
2.79882
2.7998
2.80039
1
1
1
1
1
1
1
1
1
1
1
1
1
1
1
1
1
1
1
1
1
1
1
1
1
1
1
1
1
1
1
1
1
1
1
1
1
1
1
1
1
1
1
1
1
1
1
1
1
1.91677
2.64358
2.69165
2.69301
2.69532
2.69755
2.69999
2.70274
2.70629
2.71104
2.71688
2.72309
2.72888
2.73368
2.73709
2.73926
2.74087
2.74241
2.74422
2.74691
2.7503
2.75439
2.75852
2.76217
2.76478
2.76651
2.76775
2.769
2.77065
2.77284
2.77538
2.7779
2.7801
2.78194
2.78356
2.7851
2.78662
2.78804
2.78931
2.79041
2.79147
2.79264
2.794
2.79547
2.79682
2.79776
2.79834
1
1
1
1
1
1
1
1
1
1
1
1
1
1
1
1
1
1
1
1
1
1
1
1
1
1
1
1
1
1
1
1
1
1
1
1
1
1
1
1
1
1
1
1
1
1
1
1
1
1.82578
2.62044
2.68988
2.69203
2.69465
2.69658
2.6984
2.70033
2.70302
2.70723
2.71315
2.72006
2.72682
2.73247
2.73635
2.73855
2.73992
2.74112
2.74253
2.74489
2.74815
2.75231
2.7567
2.76062
2.76339
2.76511
2.76623
2.76731
2.76881
2.77091
2.77344
2.77599
2.77821
2.78005
2.78165
2.78318
2.7847
2.78615
2.78742
2.78852
2.78953
2.79063
2.7919
2.79329
2.79461
2.79554
2.79612
1
1
1
1
1
1
1
1
1
1
1
1
1
1
1
1
1
1
1
1
1
1
1
1
1
1
1
1
1
1
1
1
1
1
1
1
1
1
1
1
1
1
1
1
1
1
1
1
1
1.72197
2.59246
2.68643
2.69048
2.69364
2.69546
2.69689
2.69818
2.69997
2.70336
2.70893
2.71615
2.72368
2.73026
2.73486
2.73735
2.73866
2.73964
2.74069
2.74266
2.74568
2.74982
2.75445
2.7587
2.76174
2.76354
2.76457
2.76547
2.76677
2.76875
2.77126
2.77385
2.77612
2.77797
2.77955
2.78106
2.78258
2.78403
2.78531
2.78639
2.78736
2.78837
2.78956
2.79088
2.79216
2.79308
2.79365
1
1
1
1
1
1
1
1
1
1
1
1
1
1
1
1
1
1
1
1
1
1
1
1
1
1
1
1
1
1
1
1
1
1
1
1
1
1
1
1
1
1
1
1
1
1
1
1
1
1.60433
2.55896
2.68164
2.68835
2.6921
2.69411
2.69548
2.69645
2.69764
2.70016
2.70504
2.712
2.71977
2.72699
2.7324
2.73545
2.73695
2.73789
2.73872
2.74031
2.74299
2.74697
2.75175
2.75633
2.75973
2.76169
2.76269
2.76344
2.76455
2.76639
2.76887
2.7715
2.77383
2.7757
2.77727
2.77874
2.78022
2.78166
2.78293
2.78399
2.78491
2.78585
2.78695
2.78821
2.78947
2.79039
2.79095
1
1
1
1
1
1
1
1
1
1
1
1
1
1
1
1
1
1
1
1
1
1
1
1
1
1
1
1
1
1
1
1
1
1
1
1
1
1
1
1
1
1
1
1
1
1
1
1
1
1.47362
2.51704
2.6764
2.68356
2.68864
2.69129
2.69307
2.69425
2.6954
2.69743
2.7015
2.70777
2.71524
2.72265
2.72874
2.73263
2.73468
2.73583
2.73659
2.73782
2.74011
2.74378
2.74858
2.75346
2.75729
2.75953
2.76059
2.76124
2.76217
2.76384
2.76626
2.76893
2.77132
2.77322
2.77477
2.7762
2.77764
2.77905
2.78029
2.7813
2.78217
2.78304
2.78407
2.78527
2.7865
2.78741
2.78795
1
1
1
1
1
1
1
1
1
1
1
1
1
1
1
1
1
1
1
1
1
1
1
1
1
1
1
1
1
1
1
1
1
1
1
1
1
1
1
1
1
1
1
1
1
1
1
1
1
1.33076
2.46284
2.67451
2.67822
2.68371
2.68715
2.68967
2.69154
2.69315
2.69515
2.69847
2.70373
2.71045
2.71759
2.72404
2.7288
2.73167
2.73329
2.73419
2.73518
2.73711
2.74039
2.74507
2.75015
2.75441
2.75701
2.75821
2.7588
2.75958
2.76108
2.76342
2.76611
2.76856
2.77051
2.77205
2.77343
2.7748
2.77613
2.77732
2.77828
2.77908
2.7799
2.78089
2.78205
2.78325
2.78414
2.78465
1
1
1
1
1
1
1
1
1
1
1
1
1
1
1
1
1
1
1
1
1
1
1
1
1
1
1
1
1
1
1
1
1
1
1
1
1
1
1
1
1
1
1
1
1
1
1
1
1
1.18404
2.39978
2.67498
2.67433
2.67847
2.68222
2.68574
2.6887
2.69124
2.6936
2.69644
2.70042
2.70583
2.71219
2.71859
2.72401
2.7278
2.73015
2.73141
2.73234
2.734
2.73687
2.74129
2.74642
2.75103
2.75404
2.75548
2.75611
2.75679
2.75814
2.76037
2.76305
2.76556
2.76754
2.76907
2.77038
2.77167
2.77292
2.77403
2.77493
2.77567
2.77644
2.77738
2.7785
2.77965
2.78049
2.78096
1
1
1
1
1
1
1
1
1
1
1
1
1
1
1
1
1
1
1
1
1
1
1
1
1
1
1
1
1
1
1
1
1
1
1
1
1
1
1
1
1
1
1
1
1
1
1
1
1
1.05611
2.34024
2.675
2.67464
2.67736
2.6809
2.68475
2.68801
2.69071
2.69298
2.69532
2.69823
2.70216
2.70721
2.71301
2.71866
2.72322
2.72639
2.72821
2.72926
2.73076
2.73324
2.73727
2.74229
2.74715
2.7506
2.7524
2.75316
2.75381
2.75503
2.75711
2.75973
2.76226
2.76428
2.76579
2.76704
2.76821
2.76935
2.77036
2.77118
2.77186
2.77258
2.77349
2.7746
2.77569
2.77647
2.7769
1
1
1
1
1
1
1
1
1
1
1
1
1
1
1
1
1
1
1
1
1
1
1
1
1
1
1
1
1
1
1
1
1
1
1
1
1
1
1
1
1
1
1
1
1
1
1
1
1
1.00164
2.25917
2.67609
2.67566
2.67723
2.68008
2.68352
2.68691
2.69
2.69268
2.69512
2.69739
2.7
2.70358
2.70823
2.71347
2.71835
2.72217
2.72462
2.72596
2.72737
2.72951
2.73309
2.73783
2.74279
2.74666
2.7489
2.74991
2.75059
2.75169
2.75361
2.75614
2.75866
2.7607
2.76219
2.76337
2.76443
2.76543
2.76633
2.76706
2.76766
2.76832
2.76919
2.77024
2.77126
2.77196
2.77232
1
1
1
1
1
1
1
1
1
1
1
1
1
1
1
1
1
1
1
1
1
1
1
1
1
1
1
1
1
1
1
1
1
1
1
1
1
1
1
1
1
1
1
1
1
1
1
1
1
1.00001
2.15624
2.67379
2.67663
2.67945
2.68252
2.68536
2.68816
2.69085
2.69324
2.69537
2.69728
2.6992
2.70162
2.705
2.70932
2.71392
2.71794
2.72085
2.72253
2.72391
2.72576
2.72883
2.73314
2.738
2.74219
2.74491
2.74627
2.74708
2.74811
2.74986
2.75226
2.75473
2.75678
2.75825
2.75933
2.76025
2.7611
2.76185
2.76246
2.76298
2.76357
2.76439
2.76537
2.76633
2.76697
2.76728
1
1
1
1
1
1
1
1
1
1
1
1
1
1
1
1
1
1
1
1
1
1
1
1
1
1
1
1
1
1
1
1
1
1
1
1
1
1
1
1
1
1
1
1
1
1
1
1
1
1
2.02174
2.65446
2.67531
2.67902
2.68229
2.68531
2.68844
2.69149
2.69409
2.69617
2.69777
2.69928
2.70112
2.70361
2.70685
2.71065
2.71432
2.7173
2.71918
2.72051
2.7221
2.72462
2.72836
2.73292
2.73726
2.74043
2.7422
2.7432
2.74422
2.74582
2.74805
2.75046
2.75248
2.75391
2.75489
2.75566
2.75635
2.75694
2.75742
2.75784
2.75835
2.75904
2.75988
2.76074
2.76129
2.76154
1
1
1
1
1
1
1
1
1
1
1
1
1
1
1
1
1
1
1
1
1
1
1
1
1
1
1
1
1
1
1
1
1
1
1
1
1
1
1
1
1
1
1
1
1
1
1
1
1
1
1.86086
2.61655
2.66831
2.67568
2.68099
2.68482
2.68818
2.69125
2.69379
2.6959
2.69767
2.69925
2.70094
2.70303
2.70569
2.70861
2.71167
2.71424
2.71613
2.71733
2.71865
2.72059
2.72367
2.72772
2.73198
2.73546
2.73765
2.7389
2.73996
2.74144
2.74352
2.74582
2.74779
2.74915
2.75001
2.75061
2.75111
2.75151
2.75181
2.75208
2.75244
2.75294
2.75365
2.75442
2.75492
2.75514
1
1
1
1
1
1
1
1
1
1
1
1
1
1
1
1
1
1
1
1
1
1
1
1
1
1
1
1
1
1
1
1
1
1
1
1
1
1
1
1
1
1
1
1
1
1
1
1
1
1
1.68514
2.55934
2.65442
2.66557
2.67318
2.6791
2.68466
2.68915
2.69256
2.69516
2.69705
2.69869
2.70041
2.70244
2.70482
2.70745
2.70986
2.71207
2.71359
2.71456
2.71557
2.71693
2.71925
2.72261
2.72653
2.7301
2.73262
2.73415
2.73528
2.73665
2.73858
2.74076
2.74264
2.74392
2.74463
2.74505
2.74533
2.74555
2.74568
2.74576
2.74587
2.74614
2.74661
2.74718
2.74755
2.74766
1
1
1
1
1
1
1
1
1
1
1
1
1
1
1
1
1
1
1
1
1
1
1
1
1
1
1
1
1
1
1
1
1
1
1
1
1
1
1
1
1
1
1
1
1
1
1
1
1
1
1.44885
2.4696
2.64387
2.65042
2.66028
2.66866
2.67621
2.68243
2.68762
2.69162
2.69469
2.69714
2.69928
2.70148
2.7038
2.7062
2.70838
2.71005
2.71154
2.71228
2.71284
2.71368
2.71526
2.71779
2.72112
2.72451
2.7272
2.72895
2.73017
2.73149
2.73326
2.73522
2.73699
2.73816
2.73872
2.73894
2.739
2.73896
2.7388
2.73854
2.73831
2.73825
2.73846
2.73885
2.73913
2.73921
1
1
1
1
1
1
1
1
1
1
1
1
1
1
1
1
1
1
1
1
1
1
1
1
1
1
1
1
1
1
1
1
1
1
1
1
1
1
1
1
1
1
1
1
1
1
1
1
1
1
1.17027
2.37692
2.64448
2.64059
2.64588
2.65407
2.66348
2.67214
2.67918
2.68454
2.68901
2.6928
2.69617
2.69929
2.70213
2.70467
2.70677
2.70831
2.70931
2.71021
2.71052
2.71086
2.71172
2.7134
2.71595
2.71889
2.7215
2.72335
2.72461
2.7259
2.72748
2.72915
2.73078
2.73182
2.73221
2.73221
2.73204
2.73167
2.73115
2.73051
2.72989
2.72942
2.7292
2.72915
2.72909
2.72892
1
1
1
1
1
1
1
1
1
1
1
1
1
1
1
1
1
1
1
1
1
1
1
1
1
1
1
1
1
1
1
1
1
1
1
1
1
1
1
1
1
1
1
1
1
1
1
1
1
1
1.00792
2.3065
2.64734
2.6387
2.64322
2.64846
2.6549
2.6618
2.66891
2.67523
2.68063
2.68561
2.69031
2.6947
2.69864
2.70193
2.70447
2.70623
2.70732
2.70796
2.70825
2.70829
2.70858
2.70948
2.71117
2.71345
2.71572
2.71748
2.71872
2.71991
2.72117
2.72258
2.72398
2.72485
2.72506
2.72487
2.72439
2.72362
2.72259
2.72136
2.72003
2.71886
2.71804
2.71755
2.71723
2.71704
1
1
1
1
1
1
1
1
1
1
1
1
1
1
1
1
1
1
1
1
1
1
1
1
1
1
1
1
1
1
1
1
1
1
1
1
1
1
1
1
1
1
1
1
1
1
1
1
1
1
1.00002
2.18317
2.64833
2.64602
2.64697
2.64891
2.65216
2.6564
2.66105
2.66611
2.67144
2.67677
2.68225
2.68771
2.69281
2.69718
2.70058
2.70301
2.70454
2.70546
2.70588
2.7058
2.70567
2.706
2.70689
2.70834
2.71002
2.71147
2.71257
2.71353
2.71439
2.71547
2.71657
2.71722
2.71722
2.71682
2.71596
2.71466
2.71299
2.71102
2.70895
2.70701
2.70535
2.70382
2.70247
2.7014
1
1
1
1
1
1
1
1
1
1
1
1
1
1
1
1
1
1
1
1
1
1
1
1
1
1
1
1
1
1
1
1
1
1
1
1
1
1
1
1
1
1
1
1
1
1
1
1
1
1
1
2.02218
2.64526
2.65054
2.65234
2.65397
2.65481
2.6562
2.65817
2.66096
2.66422
2.66837
2.67354
2.67926
2.68498
2.69024
2.69465
2.69805
2.70043
2.70197
2.70288
2.70304
2.70284
2.70273
2.70301
2.70369
2.70464
2.70556
2.7063
2.70683
2.70726
2.70788
2.70855
2.70893
2.70872
2.708
2.70666
2.70474
2.70228
2.69935
2.69603
2.69249
2.68901
2.68595
2.68354
2.68252
1
1
1
1
1
1
1
1
1
1
1
1
1
1
1
1
1
1
1
1
1
1
1
1
1
1
1
1
1
1
1
1
1
1
1
1
1
1
1
1
1
1
1
1
1
1
1
1
1
1
1
1.81479
2.59488
2.65333
2.65596
2.65727
2.65751
2.65775
2.65821
2.65889
2.6604
2.66297
2.66647
2.67108
2.67641
2.68183
2.68683
2.69111
2.69449
2.69698
2.69871
2.69952
2.69956
2.69938
2.69929
2.69937
2.6996
2.69988
2.70005
2.69994
2.69986
2.6999
2.69999
2.69996
2.69948
2.69836
2.69646
2.69378
2.6903
2.68604
2.68109
2.67578
2.67039
2.66505
2.65903
2.65354
1
1
1
1
1
1
1
1
1
1
1
1
1
1
1
1
1
1
1
1
1
1
1
1
1
1
1
1
1
1
1
1
1
1
1
1
1
1
1
1
1
1
1
1
1
1
1
1
1
1
1
1.53424
2.48336
2.64469
2.65053
2.65373
2.65568
2.6572
2.65824
2.65894
2.65966
2.66063
2.6624
2.66523
2.66901
2.67348
2.67821
2.68276
2.68686
2.69031
2.69303
2.69481
2.69553
2.69554
2.6954
2.69514
2.69484
2.6945
2.69393
2.69313
2.69234
2.69167
2.69109
2.69047
2.68949
2.68783
2.68527
2.68168
2.67699
2.67117
2.66416
2.65588
2.64582
2.63379
2.62143
2.6121
1
1
1
1
1
1
1
1
1
1
1
1
1
1
1
1
1
1
1
1
1
1
1
1
1
1
1
1
1
1
1
1
1
1
1
1
1
1
1
1
1
1
1
1
1
1
1
1
1
1
1
1.1929
2.36405
2.63626
2.63363
2.63988
2.64688
2.65231
2.65562
2.65756
2.65878
2.6597
2.66064
2.66192
2.66394
2.66673
2.67022
2.67417
2.67831
2.68227
2.68578
2.68853
2.69023
2.69088
2.69087
2.6906
2.69004
2.68917
2.68796
2.68646
2.68485
2.68332
2.68193
2.68054
2.67883
2.67646
2.67309
2.66847
2.66236
2.65454
2.6446
2.63203
2.61637
2.59748
2.57895
2.57097
1
1
1
1
1
1
1
1
1
1
1
1
1
1
1
1
1
1
1
1
1
1
1
1
1
1
1
1
1
1
1
1
1
1
1
1
1
1
1
1
1
1
1
1
1
1
1
1
1
1
1
1.01018
2.27254
2.62545
2.62302
2.6291
2.63601
2.6433
2.64915
2.65322
2.65599
2.6578
2.65903
2.65999
2.66097
2.66226
2.66416
2.66678
2.6701
2.67385
2.67752
2.68084
2.68343
2.68499
2.68553
2.68541
2.68485
2.68375
2.68209
2.67996
2.67752
2.67505
2.67266
2.6703
2.66765
2.66436
2.65999
2.65416
2.64641
2.6363
2.6231
2.60586
2.58197
2.54562
2.48032
2.34052
1
1
1
1
1
1
1
1
1
1
1
1
1
1
1
1
1
1
1
1
1
1
1
1
1
1
1
1
1
1
1
1
1
1
1
1
1
1
1
1
1
1
1
1
1
1
1
1
1
1
1
1.00001
2.11552
2.61647
2.62372
2.62727
2.63099
2.63565
2.64104
2.64603
2.65035
2.65369
2.65603
2.65752
2.65841
2.65906
2.65984
2.66113
2.66319
2.66604
2.66913
2.67237
2.67533
2.67767
2.679
2.67931
2.67893
2.67787
2.67602
2.67345
2.67031
2.6669
2.66342
2.65992
2.65614
2.6517
2.64613
2.63892
2.6294
2.61677
2.59987
2.57646
2.54236
2.48705
2.405
2.1903
1
1
1
1
1
1
1
1
1
1
1
1
1
1
1
1
1
1
1
1
1
1
1
1
1
1
1
1
1
1
1
1
1
1
1
1
1
1
1
1
1
1
1
1
1
1
1
1
1
1
1
1
1.90171
2.59286
2.62817
2.62863
2.63032
2.63227
2.63471
2.63854
2.643
2.64732
2.65095
2.65358
2.65518
2.65599
2.65642
2.65692
2.65785
2.65948
2.66158
2.66404
2.66666
2.66919
2.67117
2.67212
2.67205
2.67127
2.66952
2.66677
2.66316
2.65895
2.65438
2.64961
2.6445
2.63872
2.63175
2.62298
2.61155
2.59641
2.5758
2.54735
2.50483
2.44542
2.32339
2.1153
1
1
1
1
1
1
1
1
1
1
1
1
1
1
1
1
1
1
1
1
1
1
1
1
1
1
1
1
1
1
1
1
1
1
1
1
1
1
1
1
1
1
1
1
1
1
1
1
1
1
1
1
1.59558
2.4962
2.6256
2.62674
2.62797
2.62908
2.63084
2.63336
2.63669
2.6406
2.64456
2.648
2.65053
2.65205
2.65282
2.65319
2.65354
2.65419
2.65526
2.65658
2.65827
2.66026
2.6623
2.66376
2.66419
2.66373
2.66228
2.65962
2.65579
2.65101
2.64551
2.63951
2.63299
2.62571
2.61716
2.60673
2.59334
2.57588
2.552
2.51964
2.47186
2.40263
2.27418
2.088
1
1
1
1
1
1
1
1
1
1
1
1
1
1
1
1
1
1
1
1
1
1
1
1
1
1
1
1
1
1
1
1
1
1
1
1
1
1
1
1
1
1
1
1
1
1
1
1
1
1
1
1
1.21555
2.36805
2.62041
2.61651
2.61923
2.6234
2.6265
2.62897
2.63154
2.63453
2.63794
2.6414
2.64445
2.64678
2.64831
2.64911
2.64944
2.64963
2.6499
2.65023
2.65078
2.65173
2.65312
2.65454
2.65532
2.65515
2.65409
2.65176
2.64801
2.64296
2.63679
2.62973
2.62181
2.61295
2.60271
2.59052
2.57523
2.55567
2.52934
2.49351
2.44337
2.36894
2.25001
2.10195
1
1
1
1
1
1
1
1
1
1
1
1
1
1
1
1
1
1
1
1
1
1
1
1
1
1
1
1
1
1
1
1
1
1
1
1
1
1
1
1
1
1
1
1
1
1
1
1
1
1
1
1
1.01261
2.25537
2.60838
2.60621
2.61094
2.61644
2.62095
2.62415
2.62673
2.62922
2.63192
2.63482
2.63774
2.64045
2.64262
2.6441
2.64487
2.64502
2.64492
2.64463
2.64426
2.64409
2.64439
2.64511
2.64578
2.64575
2.64499
2.64303
2.63956
2.63452
2.62799
2.62016
2.61106
2.60073
2.58877
2.57481
2.55772
2.53627
2.50823
2.47034
2.41876
2.3455
2.24222
2.1195
1
1
1
1
1
1
1
1
1
1
1
1
1
1
1
1
1
1
1
1
1
1
1
1
1
1
1
1
1
1
1
1
1
1
1
1
1
1
1
1
1
1
1
1
1
1
1
1
1
1
1
1
1.00001
2.06106
2.58744
2.60318
2.60789
2.61166
2.61522
2.61859
2.62145
2.62392
2.62627
2.62864
2.63112
2.63376
2.63608
2.63803
2.63939
2.63991
2.63981
2.63933
2.63844
2.6374
2.63656
2.63617
2.63614
2.63591
2.63513
2.63338
2.63023
2.62546
2.6189
2.61066
2.60069
2.58916
2.57562
2.55994
2.54117
2.51813
2.48889
2.45043
2.3988
2.33075
2.24124
2.13643
1
1
1
1
1
1
1
1
1
1
1
1
1
1
1
1
1
1
1
1
1
1
1
1
1
1
1
1
1
1
1
1
1
1
1
1
1
1
1
1
1
1
1
1
1
1
1
1
1
1
1
1
0.999999
1.77805
2.53759
2.60115
2.60487
2.60797
2.61056
2.61319
2.61587
2.61836
2.62061
2.6227
2.62481
2.62711
2.62923
2.63121
2.63293
2.63395
2.63412
2.63374
2.63274
2.63124
2.62958
2.6281
2.62702
2.62608
2.62491
2.62308
2.62011
2.61564
2.60931
2.60101
2.59058
2.57816
2.56343
2.54626
2.52598
2.50159
2.47164
2.43317
2.38375
2.32117
2.24308
2.15491
1
1
1
1
1
1
1
1
1
1
1
1
1
1
1
1
1
1
1
1
1
1
1
1
1
1
1
1
1
1
1
1
1
1
1
1
1
1
1
1
1
1
1
1
1
1
1
1
1
1
1
1
1
1.38823
2.41477
2.59837
2.59825
2.60147
2.60507
2.60799
2.61058
2.61295
2.61511
2.61708
2.61897
2.62094
2.62268
2.62433
2.62595
2.62722
2.62774
2.62755
2.62674
2.62521
2.62316
2.62089
2.61875
2.61679
2.61481
2.61248
2.60936
2.60502
2.59899
2.59091
2.58048
2.5676
2.55212
2.53389
2.51239
2.48691
2.45661
2.41829
2.37226
2.31535
2.24615
2.17194
1
1
1
1
1
1
1
1
1
1
1
1
1
1
1
1
1
1
1
1
1
1
1
1
1
1
1
1
1
1
1
1
1
1
1
1
1
1
1
1
1
1
1
1
1
1
1
1
1
1
1
1
1
1.04239
2.28034
2.5995
2.59499
2.59628
2.59951
2.60249
2.605
2.60728
2.60936
2.61126
2.61308
2.61487
2.61629
2.61756
2.61882
2.61999
2.62067
2.62066
2.62015
2.61885
2.61678
2.61414
2.61122
2.60829
2.6053
2.60213
2.59849
2.59396
2.58804
2.58025
2.57012
2.55727
2.54153
2.52272
2.50051
2.47428
2.44371
2.40603
2.36334
2.31152
2.24987
2.18639
1
1
1
1
1
1
1
1
1
1
1
1
1
1
1
1
1
1
1
1
1
1
1
1
1
1
1
1
1
1
1
1
1
1
1
1
1
1
1
1
1
1
1
1
1
1
1
1
1
1
1
1
1
1.00034
2.09661
2.57164
2.58278
2.58916
2.5928
2.59607
2.59891
2.60135
2.60347
2.60537
2.60717
2.60885
2.61013
2.61112
2.61194
2.61271
2.61323
2.61326
2.61292
2.61192
2.61007
2.60744
2.60416
2.6005
2.59659
2.59242
2.58789
2.58279
2.57667
2.56901
2.55925
2.54681
2.53133
2.51251
2.4901
2.46366
2.43312
2.39643
2.35636
2.30833
2.25368
2.19758
1
1
1
1
1
1
1
1
1
1
1
1
1
1
1
1
1
1
1
1
1
1
1
1
1
1
1
1
1
1
1
1
1
1
1
1
1
1
1
1
1
1
1
1
1
1
1
1
1
1
1
1
1
0.999997
1.78998
2.52044
2.5792
2.58262
2.58606
2.58954
2.59271
2.59543
2.59754
2.59943
2.60118
2.60279
2.60402
2.60486
2.60534
2.60566
2.60578
2.60568
2.60532
2.60446
2.60286
2.60042
2.59713
2.59313
2.58854
2.58354
2.57803
2.57208
2.56539
2.55755
2.54799
2.53604
2.52115
2.50284
2.4808
2.45481
2.42455
2.38928
2.3514
2.30576
2.2574
2.20612
1
1
1
1
1
1
1
1
1
1
1
1
1
1
1
1
1
1
1
1
1
1
1
1
1
1
1
1
1
1
1
1
1
1
1
1
1
1
1
1
1
1
1
1
1
1
1
1
1
1
1
1
1
0.999999
1.36467
2.40199
2.57261
2.5723
2.57632
2.58167
2.58588
2.58879
2.59109
2.59309
2.59486
2.59647
2.59773
2.59859
2.59891
2.59886
2.59861
2.59815
2.59754
2.5966
2.59511
2.59289
2.58978
2.58576
2.58087
2.57527
2.56898
2.56211
2.55459
2.54624
2.53657
2.52496
2.51075
2.49328
2.47212
2.44716
2.41753
2.38434
2.34805
2.30484
2.26129
2.21294
1
1
1
1
1
1
1
1
1
1
1
1
1
1
1
1
1
1
1
1
1
1
1
1
1
1
1
1
1
1
1
1
1
1
1
1
1
1
1
1
1
1
1
1
1
1
1
1
1
1
1
1
1
1
1.03497
2.25948
2.57474
2.57058
2.57167
2.57475
2.57852
2.58148
2.58401
2.58623
2.58814
2.58983
2.5912
2.59217
2.59253
2.59232
2.59176
2.59091
2.58991
2.5887
2.58712
2.58499
2.58205
2.57817
2.57328
2.5674
2.5606
2.55303
2.54467
2.53558
2.52548
2.51387
2.50015
2.48357
2.46361
2.4399
2.41167
2.38081
2.34561
2.30517
2.26516
2.21948
1
1
1
1
1
1
1
1
1
1
1
1
1
1
1
1
1
1
1
1
1
1
1
1
1
1
1
1
1
1
1
1
1
1
1
1
1
1
1
1
1
1
1
1
1
1
1
1
1
1
1
1
1
1
1.00021
2.03082
2.54208
2.5604
2.56617
2.5699
2.57254
2.5745
2.57669
2.57882
2.5808
2.5826
2.58413
2.58531
2.5859
2.58571
2.58503
2.58391
2.58249
2.58089
2.57904
2.5768
2.5739
2.57017
2.56542
2.55957
2.55259
2.54459
2.53562
2.52583
2.51507
2.50316
2.48963
2.47371
2.455
2.4325
2.4065
2.37786
2.34358
2.3064
2.26908
2.22622
1
1
1
1
1
1
1
1
1
1
1
1
1
1
1
1
1
1
1
1
1
1
1
1
1
1
1
1
1
1
1
1
1
1
1
1
1
1
1
1
1
1
1
1
1
1
1
1
1
1
1
1
1
1
0.999999
1.63305
2.46271
2.56279
2.56366
2.56516
2.56715
2.56863
2.57018
2.5718
2.57349
2.57517
2.57674
2.57811
2.57899
2.57895
2.57835
2.57709
2.57537
2.57339
2.57117
2.56865
2.56563
2.56192
2.5573
2.5516
2.54471
2.53659
2.52731
2.51702
2.50567
2.49326
2.47959
2.46399
2.44623
2.42489
2.40138
2.37425
2.34181
2.30867
2.27301
2.23278
1
1
1
1
1
1
1
1
1
1
1
1
1
1
1
1
1
1
1
1
1
1
1
1
1
1
1
1
1
1
1
1
1
1
1
1
1
1
1
1
1
1
1
1
1
1
1
1
1
1
1
1
1
1
1
1.13708
2.31941
2.56175
2.55603
2.55741
2.56007
2.56205
2.56351
2.56479
2.5661
2.5675
2.56896
2.57037
2.57148
2.57182
2.57136
2.57015
2.56832
2.56607
2.5635
2.56064
2.55737
2.55354
2.54893
2.54337
2.53666
2.52869
2.51942
2.5089
2.49718
2.48431
2.47037
2.45471
2.43754
2.41721
2.39552
2.36991
2.34051
2.31061
2.27585
2.23911
1
1
1
1
1
1
1
1
1
1
1
1
1
1
1
1
1
1
1
1
1
1
1
1
1
1
1
1
1
1
1
1
1
1
1
1
1
1
1
1
1
1
1
1
1
1
1
1
1
1
1
1
1
1
1
1.00444
2.15856
2.53698
2.54137
2.54841
2.55315
2.55525
2.55698
2.55816
2.55914
2.56014
2.56129
2.56252
2.56368
2.56433
2.56404
2.56303
2.56127
2.55891
2.55608
2.5529
2.54934
2.54529
2.54057
2.53501
2.52845
2.52071
2.51167
2.50124
2.48944
2.47635
2.46212
2.44627
2.42929
2.40972
2.38941
2.36532
2.33868
2.31055
2.27819
2.24553
1
1
1
1
1
1
1
1
1
1
1
1
1
1
1
1
1
1
1
1
1
1
1
1
1
1
1
1
1
1
1
1
1
1
1
1
1
1
1
1
1
1
1
1
1
1
1
1
1
1
1
1
1
1
1
0.999984
1.81397
2.48984
2.53725
2.54318
2.54596
2.54861
2.55068
2.55194
2.55275
2.55337
2.55406
2.55488
2.55579
2.5565
2.55635
2.55557
2.55399
2.55167
2.54873
2.54533
2.54151
2.53722
2.5323
2.52666
2.52013
2.51259
2.50383
2.49371
2.48211
2.46908
2.45472
2.43886
2.42167
2.40293
2.3835
2.36002
2.33582
2.30975
2.28048
2.25052
1
1
1
1
1
1
1
1
1
1
1
1
1
1
1
1
1
1
1
1
1
1
1
1
1
1
1
1
1
1
1
1
1
1
1
1
1
1
1
1
1
1
1
1
1
1
1
1
1
1
1
1
1
1
1
0.999995
1.3139
2.37071
2.53774
2.53401
2.53664
2.54024
2.54301
2.54481
2.54591
2.54654
2.547
2.54748
2.54804
2.54856
2.54847
2.54785
2.54647
2.5443
2.54138
2.53788
2.53388
2.52939
2.52428
2.5185
2.51192
2.50445
2.49592
2.48614
2.47493
2.46219
2.44806
2.43223
2.415
2.39718
2.37766
2.3549
2.33305
2.3085
2.28185
2.25325
1
1
1
1
1
1
1
1
1
1
1
1
1
1
1
1
1
1
1
1
1
1
1
1
1
1
1
1
1
1
1
1
1
1
1
1
1
1
1
1
1
1
1
1
1
1
1
1
1
1
1
1
1
1
1
0.999999
1.024
2.22156
2.52634
2.52446
2.52719
2.53153
2.53452
2.53692
2.53854
2.53946
2.53996
2.54027
2.54051
2.54072
2.54057
2.53998
2.53873
2.5367
2.53389
2.5304
2.52631
2.52167
2.51642
2.51054
2.50389
2.49644
2.48803
2.47851
2.46775
2.4554
2.4418
2.42617
2.40932
2.39191
2.37204
2.35101
2.33035
2.30642
2.28135
2.25452
1
1
1
1
1
1
1
1
1
1
1
1
1
1
1
1
1
1
1
1
1
1
1
1
1
1
1
1
1
1
1
1
1
1
1
1
1
1
1
1
1
1
1
1
1
1
1
1
1
1
1
1
1
1
1
1
1.00007
1.90056
2.48939
2.51694
2.52186
2.52561
2.52754
2.52957
2.53121
2.53229
2.53292
2.5332
2.53321
2.53314
2.53284
2.53215
2.5309
2.52896
2.52626
2.52284
2.51874
2.51402
2.5087
2.50278
2.49613
2.48869
2.48034
2.47096
2.46056
2.44858
2.43561
2.42039
2.40422
2.38702
2.36759
2.3481
2.3273
2.30424
2.28084
2.25601
1
1
1
1
1
1
1
1
1
1
1
1
1
1
1
1
1
1
1
1
1
1
1
1
1
1
1
1
1
1
1
1
1
1
1
1
1
1
1
1
1
1
1
1
1
1
1
1
1
1
1
1
1
1
1
1
1
1.38596
2.37929
2.51885
2.51714
2.51864
2.5201
2.52182
2.52332
2.52444
2.52524
2.52569
2.52569
2.52555
2.52514
2.52436
2.52307
2.52116
2.51854
2.51518
2.51111
2.50638
2.50104
2.49512
2.48852
2.48114
2.47289
2.4636
2.45343
2.44174
2.42933
2.41464
2.39942
2.38271
2.36404
2.34503
2.32422
2.30307
2.28084
2.25697
1
1
1
1
1
1
1
1
1
1
1
1
1
1
1
1
1
1
1
1
1
1
1
1
1
1
1
1
1
1
1
1
1
1
1
1
1
1
1
1
1
1
1
1
1
1
1
1
1
1
1
1
1
1
1
1
1
1.03669
2.22394
2.51203
2.50916
2.51074
2.51244
2.51441
2.51574
2.51668
2.51741
2.51793
2.51799
2.51786
2.51743
2.51662
2.51531
2.5134
2.51081
2.5075
2.50346
2.49874
2.49344
2.48755
2.48102
2.47377
2.46568
2.45652
2.44648
2.43507
2.42297
2.40897
2.39476
2.37845
2.36062
2.34218
2.3224
2.30246
2.2806
2.25734
1
1
1
1
1
1
1
1
1
1
1
1
1
1
1
1
1
1
1
1
1
1
1
1
1
1
1
1
1
1
1
1
1
1
1
1
1
1
1
1
1
1
1
1
1
1
1
1
1
1
1
1
1
1
1
1
1
1.0002
1.88779
2.46865
2.49933
2.50415
2.50712
2.50892
2.50959
2.50997
2.51021
2.51039
2.51032
2.51011
2.50965
2.50883
2.50753
2.50564
2.5031
2.49983
2.49583
2.49115
2.48586
2.48004
2.47357
2.46645
2.45857
2.4496
2.43975
2.42866
2.41667
2.40353
2.38991
2.3739
2.35723
2.33981
2.32106
2.30149
2.27995
2.25779
1
1
1
1
1
1
1
1
1
1
1
1
1
1
1
1
1
1
1
1
1
1
1
1
1
1
1
1
1
1
1
1
1
1
1
1
1
1
1
1
1
1
1
1
1
1
1
1
1
1
1
1
1
1
1
1
1
0.999999
1.33475
2.35052
2.5046
2.4997
2.50089
2.50179
2.5025
2.50285
2.5029
2.5028
2.50255
2.5022
2.50167
2.50087
2.49963
2.49782
2.49536
2.49217
2.48826
2.48367
2.47843
2.47263
2.46617
2.45921
2.45149
2.44277
2.43325
2.42247
2.41069
2.39828
2.38477
2.3694
2.354
2.33748
2.31927
2.30019
2.27984
2.2589
1
1
1
1
1
1
1
1
1
1
1
1
1
1
1
1
1
1
1
1
1
1
1
1
1
1
1
1
1
1
1
1
1
1
1
1
1
1
1
1
1
1
1
1
1
1
1
1
1
1
1
1
1
1
1
1
1
1
1.02663
2.19259
2.48765
2.48855
2.4916
2.49323
2.49489
2.49571
2.49589
2.49562
2.4951
2.49449
2.49378
2.49287
2.49163
2.48988
2.48752
2.48447
2.48071
2.47625
2.47111
2.46535
2.45895
2.45198
2.44437
2.43595
2.42681
2.41638
2.405
2.39302
2.37959
2.3652
2.35069
2.33456
2.3169
2.29912
2.28013
2.26006
1
1
1
1
1
1
1
1
1
1
1
1
1
1
1
1
1
1
1
1
1
1
1
1
1
1
1
1
1
1
1
1
1
1
1
1
1
1
1
1
1
1
1
1
1
1
1
1
1
1
1
1
1
1
1
1
1
1
1.00009
1.80228
2.43763
2.4815
2.48397
2.48567
2.48802
2.48955
2.48961
2.48911
2.48828
2.48728
2.48621
2.48504
2.48365
2.48188
2.4796
2.4767
2.47312
2.46886
2.46389
2.45823
2.45192
2.44485
2.43734
2.42913
2.42035
2.41033
2.39946
2.38774
2.37474
2.36118
2.347
2.33124
2.31464
2.29815
2.28009
2.26063
1
1
1
1
1
1
1
1
1
1
1
1
1
1
1
1
1
1
1
1
1
1
1
1
1
1
1
1
1
1
1
1
1
1
1
1
1
1
1
1
1
1
1
1
1
1
1
1
1
1
1
1
1
1
1
1
1
1
1
1.20349
2.30344
2.48849
2.47855
2.47897
2.48016
2.48197
2.48203
2.48174
2.48107
2.48005
2.4788
2.47738
2.47577
2.47389
2.4716
2.4688
2.46541
2.46137
2.45662
2.45115
2.44496
2.438
2.43047
2.42234
2.41379
2.40418
2.39384
2.38254
2.37017
2.35705
2.34312
2.32813
2.31262
2.29678
2.27929
2.26065
1
1
1
1
1
1
1
1
1
1
1
1
1
1
1
1
1
1
1
1
1
1
1
1
1
1
1
1
1
1
1
1
1
1
1
1
1
1
1
1
1
1
1
1
1
1
1
1
1
1
1
1
1
1
1
1
1
1
1
1.00942
2.11746
2.46309
2.46291
2.46607
2.4718
2.47368
2.47406
2.47421
2.47389
2.47303
2.47172
2.47011
2.46825
2.46615
2.46375
2.46095
2.45767
2.45381
2.4493
2.44406
2.43808
2.43131
2.42382
2.41578
2.40725
2.39793
2.38808
2.37734
2.36553
2.35279
2.3394
2.32524
2.31039
2.29473
2.27792
2.26051
1
1
1
1
1
1
1
1
1
1
1
1
1
1
1
1
1
1
1
1
1
1
1
1
1
1
1
1
1
1
1
1
1
1
1
1
1
1
1
1
1
1
1
1
1
1
1
1
1
1
1
1
1
1
1
1
1
1
1
0.999993
1.6418
2.38565
2.46442
2.46635
2.46765
2.46619
2.46641
2.46689
2.46672
2.46599
2.46473
2.46305
2.46101
2.45868
2.45607
2.45317
2.44988
2.44612
2.4418
2.43681
2.43108
2.42458
2.4173
2.40943
2.40093
2.39178
2.38229
2.37204
2.3607
2.34856
2.33587
2.32232
2.30781
2.29239
2.27669
2.2604
1
1
1
1
1
1
1
1
1
1
1
1
1
1
1
1
1
1
1
1
1
1
1
1
1
1
1
1
1
1
1
1
1
1
1
1
1
1
1
1
1
1
1
1
1
1
1
1
1
1
1
1
1
1
1
1
1
1
1
0.999996
1.10979
2.2327
2.4673
2.46194
2.45949
2.45803
2.45871
2.45953
2.45935
2.45868
2.45754
2.45595
2.45388
2.45144
2.44868
2.44563
2.44227
2.43853
2.43431
2.42951
2.42404
2.41783
2.41085
2.40322
2.39484
2.38584
2.37657
2.36658
2.35568
2.34427
2.33217
2.31911
2.30501
2.29019
2.27556
2.26002
1
1
1
1
1
1
1
1
1
1
1
1
1
1
1
1
1
1
1
1
1
1
1
1
1
1
1
1
1
1
1
1
1
1
1
1
1
1
1
1
1
1
1
1
1
1
1
1
1
1
1
1
1
1
1
1
1
1
1
0.999999
1.00252
1.93404
2.42558
2.44547
2.44896
2.45027
2.45241
2.45312
2.45277
2.45195
2.45072
2.44904
2.4469
2.44437
2.44147
2.43829
2.43481
2.43101
2.42681
2.42213
2.41687
2.41094
2.4043
2.39699
2.38888
2.38014
2.37105
2.36122
2.35075
2.33989
2.32817
2.31563
2.30215
2.28817
2.27426
2.25907
1
1
1
1
1
1
1
1
1
1
1
1
1