/*--------------------------------*- C++ -*----------------------------------*\
  =========                 |
  \\      /  F ield         | OpenFOAM: The Open Source CFD Toolbox
   \\    /   O peration     | Website:  https://openfoam.org
    \\  /    A nd           | Version:  7
     \\/     M anipulation  |
\*---------------------------------------------------------------------------*/
FoamFile
{
    version     2.0;
    format      ascii;
    class       volVectorField;
    location    "3.8";
    object      U;
}
// * * * * * * * * * * * * * * * * * * * * * * * * * * * * * * * * * * * * * //

dimensions      [0 1 -1 0 0 0 0];

internalField   nonuniform List<vector> 
64512
(
(3 -5.15642e-18 0)
(3 2.63135e-17 0)
(3 -1.1166e-16 0)
(3 -3.39562e-16 0)
(3 -9.86606e-16 0)
(3 -1.33121e-15 0)
(3 -1.38682e-15 0)
(3 -1.08021e-15 0)
(3 -9.66215e-16 0)
(3 -8.608e-16 0)
(3 -7.54267e-16 0)
(3 -3.50582e-16 0)
(3 -6.32416e-17 0)
(3 -3.86984e-17 0)
(3 -1.77934e-17 0)
(3 -2.24678e-16 0)
(3 -1.36555e-16 0)
(3 -1.89532e-16 0)
(3 -3.70872e-16 0)
(3 -6.0019e-17 0)
(3 3.57711e-16 0)
(3 6.0875e-16 0)
(3 4.27189e-16 0)
(3 2.27838e-17 0)
(3 2.65063e-16 0)
(3 2.9704e-16 0)
(3 9.94402e-16 0)
(3 1.30585e-15 0)
(3 5.93756e-16 0)
(3 1.80011e-16 0)
(3 -6.12986e-17 0)
(3 -5.28599e-16 0)
(3 -6.19565e-16 0)
(3 -5.31605e-17 0)
(3 3.44394e-16 0)
(3 4.06734e-16 0)
(3 7.1787e-16 0)
(3 5.91301e-16 0)
(3 4.7135e-16 0)
(3 3.95428e-16 0)
(3 4.70701e-16 0)
(3 7.4008e-16 0)
(3 9.13229e-16 0)
(3 1.09737e-15 0)
(3 2.18875e-16 0)
(3 -5.95406e-16 0)
(3 -1.32971e-15 0)
(3 -1.08913e-15 0)
(2.95866 -0.00234158 0)
(1.08051 0.00411056 0)
(0.764521 0.00318722 0)
(0.750133 0.00643392 0)
(0.73574 0.00713392 0)
(0.720419 0.00749241 0)
(0.704343 0.00758072 0)
(0.687955 0.00745692 0)
(0.671917 0.00722186 0)
(0.656565 0.00700747 0)
(0.641741 0.00687468 0)
(0.627021 0.00678766 0)
(0.612111 0.00667728 0)
(0.596988 0.00653356 0)
(0.581792 0.00639886 0)
(0.566648 0.00636326 0)
(0.551498 0.00649926 0)
(0.536178 0.00675118 0)
(0.520699 0.00691172 0)
(0.505437 0.00678279 0)
(0.49076 0.00653186 0)
(0.476345 0.00659477 0)
(0.46136 0.00701761 0)
(0.445473 0.00737467 0)
(0.429203 0.00743857 0)
(0.41305 0.00744333 0)
(0.396992 0.00757748 0)
(0.380879 0.00775816 0)
(0.364692 0.00789534 0)
(0.348415 0.00799468 0)
(0.331957 0.00808555 0)
(0.315213 0.00818263 0)
(0.298135 0.00828737 0)
(0.280771 0.00838727 0)
(0.263236 0.00847881 0)
(0.245616 0.00857612 0)
(0.227903 0.00868499 0)
(0.21002 0.00880477 0)
(0.191878 0.00894545 0)
(0.173429 0.00912316 0)
(0.154664 0.00934094 0)
(0.135582 0.00959617 0)
(0.116169 0.00987245 0)
(0.0963594 0.0101582 0)
(0.0760278 0.0104284 0)
(0.0550231 0.0106669 0)
(0.033336 0.0107496 0)
(0.0114611 0.0108092 0)
(3 -8.14315e-17 0)
(3 -7.90776e-17 0)
(3 -3.18697e-16 0)
(3 -7.3823e-16 0)
(3 -1.48766e-15 0)
(3 -2.73913e-15 0)
(3 -3.3539e-15 0)
(3 -2.72523e-15 0)
(3 -2.37554e-15 0)
(3 -1.88816e-15 0)
(3 -1.89162e-15 0)
(3 -1.55109e-15 0)
(3 -9.6079e-16 0)
(3 -1.0044e-15 0)
(3 -8.4663e-16 0)
(3 -7.0906e-16 0)
(3 -8.4939e-16 0)
(3 -4.11264e-16 0)
(3 6.65746e-16 0)
(3 2.00481e-16 0)
(3 -2.14566e-16 0)
(3 -5.4738e-17 0)
(3 -1.56848e-16 0)
(3 2.65613e-17 0)
(3 6.24283e-16 0)
(3 7.46539e-16 0)
(3 1.23888e-15 0)
(3 1.96386e-15 0)
(3 1.63123e-15 0)
(3 1.04381e-15 0)
(3 3.41078e-16 0)
(3 -3.89894e-16 0)
(3 2.07729e-16 0)
(3 7.34736e-16 0)
(3 6.35108e-16 0)
(3 7.61629e-16 0)
(3 1.51548e-15 0)
(3 1.55887e-15 0)
(3 1.62723e-15 0)
(3 1.31566e-15 0)
(3 1.49859e-15 0)
(3 2.13168e-15 0)
(3 2.76582e-15 0)
(3 2.51617e-15 0)
(3 9.70011e-16 0)
(3 -8.67456e-16 0)
(3 -1.34746e-15 0)
(3 -1.35759e-15 0)
(2.96446 -0.00418913 0)
(1.08087 0.0179297 0)
(0.760028 0.0135309 0)
(0.742518 0.014866 0)
(0.728165 0.0168814 0)
(0.713365 0.0181107 0)
(0.698518 0.0190751 0)
(0.683645 0.0197425 0)
(0.668972 0.0201097 0)
(0.654532 0.0203936 0)
(0.640087 0.0206846 0)
(0.625337 0.0208052 0)
(0.610238 0.0205168 0)
(0.595025 0.0198963 0)
(0.579929 0.019309 0)
(0.564984 0.0191443 0)
(0.550015 0.0195758 0)
(0.534785 0.0203824 0)
(0.519236 0.0209314 0)
(0.503733 0.0205952 0)
(0.488697 0.0198133 0)
(0.473888 0.019864 0)
(0.458641 0.020996 0)
(0.442599 0.0219731 0)
(0.426252 0.0221037 0)
(0.410059 0.0220895 0)
(0.393974 0.0224813 0)
(0.377838 0.0230251 0)
(0.36163 0.0234458 0)
(0.345335 0.0237599 0)
(0.328866 0.024054 0)
(0.312128 0.0243713 0)
(0.295077 0.0247155 0)
(0.277759 0.0250475 0)
(0.260287 0.0253541 0)
(0.242746 0.0256751 0)
(0.225141 0.0260241 0)
(0.207413 0.0263942 0)
(0.18949 0.0268135 0)
(0.171325 0.0273362 0)
(0.152892 0.0279833 0)
(0.134167 0.0287602 0)
(0.115112 0.0296236 0)
(0.0956414 0.0305391 0)
(0.0756095 0.0314245 0)
(0.0548461 0.0322203 0)
(0.0333138 0.0325489 0)
(0.0114996 0.0328362 0)
(3 -1.55913e-16 0)
(3 -1.90899e-16 0)
(3 -2.30115e-16 0)
(3 -4.32095e-16 0)
(3 -8.594e-16 0)
(3 -1.79625e-15 0)
(3 -2.21274e-15 0)
(3 -2.08766e-15 0)
(3 -2.51959e-15 0)
(3 -2.6241e-15 0)
(3 -2.99702e-15 0)
(3 -2.43342e-15 0)
(3 -1.50499e-15 0)
(3 -1.28572e-15 0)
(3 -7.16141e-16 0)
(3 -1.16863e-16 0)
(3 -1.09218e-16 0)
(3 1.937e-16 0)
(3 4.32603e-16 0)
(3 1.09568e-16 0)
(3 -4.31383e-16 0)
(3 -6.02781e-17 0)
(3 1.34833e-16 0)
(3 1.58721e-16 0)
(3 -2.33489e-17 0)
(3 9.78449e-17 0)
(3 6.5471e-16 0)
(3 8.77496e-16 0)
(3 1.65745e-16 0)
(3 2.97078e-16 0)
(3 2.06408e-16 0)
(3 3.86382e-16 0)
(3 9.98246e-16 0)
(3 1.13134e-15 0)
(3 4.11412e-16 0)
(3 -3.88024e-17 0)
(3 2.16551e-16 0)
(3 3.49067e-16 0)
(3 1.14341e-16 0)
(3 8.64663e-17 0)
(3 3.81467e-17 0)
(3 5.79948e-16 0)
(3 9.59524e-16 0)
(3 8.43044e-16 0)
(3 5.68931e-16 0)
(3 2.0528e-16 0)
(3 4.68982e-16 0)
(3 -2.24161e-16 0)
(2.97929 0.00178794 0)
(1.08884 0.0326211 0)
(0.76115 0.0256459 0)
(0.741352 0.0289375 0)
(0.725131 0.0299946 0)
(0.710084 0.0304128 0)
(0.695946 0.0308414 0)
(0.682253 0.0313719 0)
(0.668756 0.0319923 0)
(0.655134 0.0328629 0)
(0.641017 0.0339363 0)
(0.626158 0.0346759 0)
(0.610736 0.0344911 0)
(0.595274 0.0334327 0)
(0.58014 0.0323052 0)
(0.565304 0.0319475 0)
(0.550508 0.0326845 0)
(0.535438 0.0341227 0)
(0.519905 0.0351852 0)
(0.504216 0.0348052 0)
(0.488812 0.0336244 0)
(0.473506 0.0336893 0)
(0.457862 0.035455 0)
(0.44151 0.0369767 0)
(0.424915 0.0371298 0)
(0.408515 0.0370641 0)
(0.392243 0.0376758 0)
(0.375934 0.0385458 0)
(0.359548 0.0392167 0)
(0.343067 0.0397123 0)
(0.32641 0.0401733 0)
(0.309489 0.0406716 0)
(0.292269 0.0412144 0)
(0.274791 0.0417332 0)
(0.257163 0.0422008 0)
(0.239475 0.0426823 0)
(0.221747 0.0432042 0)
(0.203956 0.0437596 0)
(0.186066 0.0443956 0)
(0.168048 0.0452005 0)
(0.149875 0.0462099 0)
(0.131505 0.0474426 0)
(0.112872 0.0488415 0)
(0.0938557 0.0503695 0)
(0.0742835 0.0518999 0)
(0.0539673 0.0533298 0)
(0.0328337 0.0540085 0)
(0.0113774 0.0546552 0)
(3 -3.76047e-18 0)
(3 -1.19423e-16 0)
(3 -1.31706e-16 0)
(3 1.09807e-16 0)
(3 1.79425e-16 0)
(3 -1.85027e-16 0)
(3 -4.67812e-16 0)
(3 -7.79106e-16 0)
(3 -1.20113e-15 0)
(3 -1.60921e-15 0)
(3 -1.87231e-15 0)
(3 -2.04404e-15 0)
(3 -2.19983e-15 0)
(3 -1.80246e-15 0)
(3 -1.64247e-15 0)
(3 -1.25326e-15 0)
(3 -3.45079e-16 0)
(3 -3.72312e-16 0)
(3 -5.00756e-16 0)
(3 7.58029e-17 0)
(3 4.20981e-16 0)
(3 3.99956e-16 0)
(3 7.16276e-16 0)
(3 7.71734e-16 0)
(3 3.31189e-16 0)
(3 2.45248e-16 0)
(3 5.6516e-16 0)
(3 5.92853e-16 0)
(3 -2.10092e-16 0)
(3 -1.15814e-15 0)
(3 -4.51474e-16 0)
(3 2.33253e-16 0)
(3 6.28637e-17 0)
(3 -5.93372e-16 0)
(3 -1.0127e-15 0)
(3 -1.13552e-15 0)
(3 -1.20081e-15 0)
(3 -1.20951e-15 0)
(3 -7.11836e-16 0)
(3 -2.90111e-16 0)
(3 -3.06189e-16 0)
(3 -6.22838e-16 0)
(3 -1.69965e-16 0)
(3 1.02699e-17 0)
(3 -6.06759e-16 0)
(3 -7.67993e-16 0)
(3 -5.72564e-16 0)
(3 -7.82759e-16 0)
(2.99868 0.0014126 0)
(1.10872 0.0447391 0)
(0.765708 0.0368365 0)
(0.746198 0.0426624 0)
(0.729401 0.0428293 0)
(0.713826 0.0420873 0)
(0.699418 0.0414286 0)
(0.685704 0.0414601 0)
(0.672304 0.0423646 0)
(0.658772 0.0441631 0)
(0.644647 0.0465253 0)
(0.629566 0.0483693 0)
(0.61374 0.0485992 0)
(0.597851 0.0472184 0)
(0.582373 0.0455199 0)
(0.567274 0.0449136 0)
(0.552306 0.045908 0)
(0.537148 0.0479632 0)
(0.521493 0.0495876 0)
(0.505586 0.0492773 0)
(0.489905 0.0477818 0)
(0.47427 0.0478408 0)
(0.458451 0.0501533 0)
(0.442005 0.0521726 0)
(0.425336 0.0523514 0)
(0.408856 0.0522485 0)
(0.39249 0.0530839 0)
(0.37607 0.0542882 0)
(0.359529 0.0552288 0)
(0.342854 0.0559313 0)
(0.325972 0.0565848 0)
(0.308811 0.0572884 0)
(0.291342 0.0580525 0)
(0.2736 0.0587772 0)
(0.255679 0.0594141 0)
(0.237668 0.0600461 0)
(0.219609 0.0607089 0)
(0.201515 0.0613922 0)
(0.183397 0.0621566 0)
(0.165254 0.0631229 0)
(0.147072 0.0643485 0)
(0.128811 0.0658858 0)
(0.110397 0.0676881 0)
(0.091704 0.0697417 0)
(0.0725425 0.071889 0)
(0.0527139 0.0739861 0)
(0.0320833 0.0750893 0)
(0.0111523 0.0761994 0)
(3 3.8258e-17 0)
(3 -1.35647e-16 0)
(3 -4.15521e-16 0)
(3 -1.7883e-16 0)
(3 -1.6754e-16 0)
(3 -1.91767e-16 0)
(3 -6.28712e-16 0)
(3 -1.28882e-15 0)
(3 -9.796e-16 0)
(3 -1.11277e-15 0)
(3 -1.54649e-15 0)
(3 -2.25281e-15 0)
(3 -3.22891e-15 0)
(3 -2.96418e-15 0)
(3 -1.96148e-15 0)
(3 -1.25238e-15 0)
(3 -4.48106e-16 0)
(3 -1.10973e-16 0)
(3 3.82815e-16 0)
(3 1.16878e-15 0)
(3 1.31431e-15 0)
(3 8.51372e-16 0)
(3 1.07781e-15 0)
(3 1.65229e-15 0)
(3 1.04315e-15 0)
(3 -5.70203e-17 0)
(3 -1.95042e-16 0)
(3 -1.04648e-15 0)
(3 -1.47365e-15 0)
(3 -2.01745e-15 0)
(3 -1.82158e-15 0)
(3 -1.34195e-15 0)
(3 -1.41683e-15 0)
(3 -1.56136e-15 0)
(3 -9.59449e-16 0)
(3 -4.1408e-16 0)
(3 -7.36359e-16 0)
(3 -7.67531e-16 0)
(3 -5.40713e-16 0)
(3 -9.74428e-16 0)
(3 -9.48554e-16 0)
(3 -1.31494e-15 0)
(3 -1.87091e-15 0)
(3 -2.28129e-15 0)
(3 -2.31212e-15 0)
(3 -1.85726e-15 0)
(3 -2.01949e-15 0)
(3 -1.75179e-15 0)
(3.00001 1.02784e-05 0)
(1.13543 0.0576908 0)
(0.767606 0.0474755 0)
(0.748764 0.0564611 0)
(0.732176 0.0560504 0)
(0.716339 0.0543707 0)
(0.701264 0.052774 0)
(0.686653 0.052386 0)
(0.672281 0.0534646 0)
(0.657868 0.0559926 0)
(0.643089 0.0593521 0)
(0.627597 0.0620122 0)
(0.611584 0.0625229 0)
(0.59572 0.0609124 0)
(0.580434 0.0587831 0)
(0.565657 0.0580312 0)
(0.551166 0.0593277 0)
(0.536606 0.061991 0)
(0.521476 0.0641521 0)
(0.505926 0.0639319 0)
(0.490483 0.0621297 0)
(0.474965 0.0621039 0)
(0.459378 0.0648415 0)
(0.4432 0.0673125 0)
(0.426745 0.0675441 0)
(0.410411 0.0674354 0)
(0.394125 0.0685066 0)
(0.377727 0.0700628 0)
(0.361125 0.0713049 0)
(0.344315 0.0722524 0)
(0.327248 0.0731363 0)
(0.309876 0.074082 0)
(0.29218 0.0751059 0)
(0.274186 0.0760768 0)
(0.255968 0.0769212 0)
(0.237612 0.0777367 0)
(0.219174 0.0785665 0)
(0.200699 0.0793912 0)
(0.18223 0.0802705 0)
(0.163788 0.0813417 0)
(0.145373 0.0826741 0)
(0.126959 0.0843628 0)
(0.108487 0.0863906 0)
(0.0898577 0.0888043 0)
(0.0709031 0.0914446 0)
(0.0514421 0.094156 0)
(0.0312655 0.0956935 0)
(0.0108847 0.0973075 0)
(3 -1.29886e-17 0)
(3 2.02265e-16 0)
(3 1.7408e-16 0)
(3 -1.68441e-16 0)
(3 -6.71702e-16 0)
(3 -5.54347e-16 0)
(3 -8.25372e-16 0)
(3 -8.03678e-16 0)
(3 -9.46639e-16 0)
(3 -1.21299e-15 0)
(3 -1.44817e-15 0)
(3 -1.39401e-15 0)
(3 -9.53561e-16 0)
(3 -8.1363e-16 0)
(3 -4.16651e-16 0)
(3 -1.51628e-16 0)
(3 7.38358e-17 0)
(3 2.48609e-16 0)
(3 -8.88494e-17 0)
(3 -1.56576e-16 0)
(3 -1.2393e-16 0)
(3 2.8727e-16 0)
(3 6.93969e-16 0)
(3 8.57458e-16 0)
(3 7.42365e-16 0)
(3 2.18231e-16 0)
(3 -2.91881e-16 0)
(3 -1.37435e-15 0)
(3 -1.61956e-15 0)
(3 -1.34997e-15 0)
(3 -1.89876e-15 0)
(3 -2.74169e-15 0)
(3 -3.12722e-15 0)
(3 -2.658e-15 0)
(3 -1.24529e-15 0)
(3 -1.22118e-15 0)
(3 -1.09742e-15 0)
(3 -1.35912e-15 0)
(3 -2.10242e-15 0)
(3 -1.68267e-15 0)
(3 -1.88018e-15 0)
(3 -2.25873e-15 0)
(3 -2.55129e-15 0)
(3 -2.42552e-15 0)
(3 -1.64292e-15 0)
(3 -1.21028e-15 0)
(3 -1.50955e-15 0)
(3 -1.68493e-15 0)
(3 2.42187e-08 0)
(1.17285 0.0712283 0)
(0.769427 0.0578018 0)
(0.750019 0.0695192 0)
(0.733326 0.0693119 0)
(0.716993 0.0672389 0)
(0.701373 0.0649833 0)
(0.686458 0.0641311 0)
(0.672094 0.065197 0)
(0.65791 0.0680731 0)
(0.643434 0.0719838 0)
(0.628209 0.075196 0)
(0.612287 0.0760057 0)
(0.596332 0.0742277 0)
(0.580835 0.0717743 0)
(0.565842 0.0709317 0)
(0.551284 0.0725363 0)
(0.53688 0.0757917 0)
(0.521997 0.0784963 0)
(0.506676 0.0784213 0)
(0.49145 0.0763598 0)
(0.476046 0.0762189 0)
(0.460652 0.0793149 0)
(0.444659 0.0822733 0)
(0.428269 0.0826769 0)
(0.411919 0.0826574 0)
(0.395592 0.0840043 0)
(0.379161 0.0859322 0)
(0.362517 0.0874925 0)
(0.345661 0.0886981 0)
(0.32855 0.0898223 0)
(0.31114 0.0910211 0)
(0.293403 0.0923233 0)
(0.275336 0.0935688 0)
(0.256989 0.0946545 0)
(0.238442 0.0956884 0)
(0.219768 0.0967208 0)
(0.201033 0.0977198 0)
(0.1823 0.0987341 0)
(0.163604 0.0999052 0)
(0.144947 0.101302 0)
(0.12631 0.103059 0)
(0.107649 0.105185 0)
(0.0889015 0.10781 0)
(0.0699416 0.110792 0)
(0.0506362 0.114013 0)
(0.0307084 0.115942 0)
(0.0106982 0.118045 0)
(3 -3.48042e-17 0)
(3 4.3983e-16 0)
(3 8.30774e-16 0)
(3 6.33569e-16 0)
(3 5.80483e-16 0)
(3 4.69999e-16 0)
(3 6.65835e-16 0)
(3 9.60378e-16 0)
(3 3.24759e-16 0)
(3 3.3598e-16 0)
(3 1.77081e-16 0)
(3 -1.26883e-16 0)
(3 -2.91202e-16 0)
(3 -3.02021e-16 0)
(3 -2.63156e-16 0)
(3 -3.27211e-16 0)
(3 -3.96205e-16 0)
(3 -8.44326e-16 0)
(3 -9.72049e-16 0)
(3 -3.85626e-16 0)
(3 -1.50222e-16 0)
(3 2.25242e-16 0)
(3 4.09631e-17 0)
(3 -4.35435e-16 0)
(3 -7.8735e-16 0)
(3 1.12415e-16 0)
(3 -5.63292e-18 0)
(3 9.37847e-17 0)
(3 2.65277e-16 0)
(3 4.63015e-16 0)
(3 5.49361e-16 0)
(3 -8.14189e-16 0)
(3 -1.44148e-15 0)
(3 -1.39219e-15 0)
(3 -9.0978e-16 0)
(3 -9.62952e-16 0)
(3 -9.5086e-16 0)
(3 -9.95393e-16 0)
(3 -1.46418e-15 0)
(3 -1.60061e-15 0)
(3 -2.15432e-15 0)
(3 -2.86648e-15 0)
(3 -3.23429e-15 0)
(3 -2.79016e-15 0)
(3 -2.04921e-15 0)
(3 -1.90585e-15 0)
(3 -1.23919e-15 0)
(3 -1.44678e-15 0)
(3 -3.05791e-13 0)
(1.22224 0.0854791 0)
(0.771975 0.0686372 0)
(0.750855 0.0823731 0)
(0.733986 0.0827107 0)
(0.717231 0.0804328 0)
(0.701223 0.0774302 0)
(0.686085 0.0759881 0)
(0.67175 0.0769198 0)
(0.65785 0.080047 0)
(0.643766 0.0844932 0)
(0.628788 0.0881901 0)
(0.612834 0.0892979 0)
(0.596545 0.0875486 0)
(0.580595 0.0848253 0)
(0.56523 0.0838616 0)
(0.550599 0.0857208 0)
(0.536502 0.0895148 0)
(0.522083 0.0927287 0)
(0.507147 0.0928423 0)
(0.492181 0.0905948 0)
(0.476835 0.0903383 0)
(0.461521 0.0937439 0)
(0.445642 0.0972192 0)
(0.429302 0.097873 0)
(0.413018 0.0979627 0)
(0.396806 0.0995429 0)
(0.380537 0.101795 0)
(0.364039 0.10365 0)
(0.347284 0.105117 0)
(0.330224 0.106502 0)
(0.312821 0.107982 0)
(0.295053 0.109597 0)
(0.276912 0.111158 0)
(0.258443 0.112528 0)
(0.239735 0.113822 0)
(0.220874 0.115094 0)
(0.20194 0.116301 0)
(0.183004 0.117473 0)
(0.164102 0.118751 0)
(0.145236 0.120197 0)
(0.12639 0.121979 0)
(0.107527 0.124131 0)
(0.0886135 0.126873 0)
(0.0695578 0.130092 0)
(0.0502809 0.133748 0)
(0.0304355 0.136039 0)
(0.0106165 0.138623 0)
(3 2.9433e-17 0)
(3 -1.30497e-17 0)
(3 -3.73989e-17 0)
(3 5.64243e-17 0)
(3 2.38681e-16 0)
(3 1.90283e-16 0)
(3 1.64346e-16 0)
(3 2.8284e-16 0)
(3 5.41922e-16 0)
(3 4.65178e-16 0)
(3 2.62168e-16 0)
(3 -2.21638e-16 0)
(3 -7.10899e-16 0)
(3 -1.247e-15 0)
(3 -1.19791e-15 0)
(3 -7.28548e-16 0)
(3 -4.7803e-16 0)
(3 -2.48773e-16 0)
(3 1.03645e-16 0)
(3 6.89529e-16 0)
(3 8.25885e-16 0)
(3 5.18281e-16 0)
(3 6.47655e-17 0)
(3 -5.57221e-16 0)
(3 -5.47965e-16 0)
(3 -6.20437e-16 0)
(3 -3.56051e-16 0)
(3 5.49588e-16 0)
(3 9.67511e-16 0)
(3 1.5442e-15 0)
(3 3.13071e-15 0)
(3 2.21612e-15 0)
(3 9.23157e-16 0)
(3 7.63407e-16 0)
(3 5.69358e-16 0)
(3 1.23274e-16 0)
(3 4.28048e-16 0)
(3 5.06465e-16 0)
(3 2.67572e-16 0)
(3 -8.45898e-16 0)
(3 -1.89899e-15 0)
(3 -2.55064e-15 0)
(3 -2.66449e-15 0)
(3 -2.26179e-15 0)
(3 -1.85726e-15 0)
(3 -1.57532e-15 0)
(3 -9.78551e-16 0)
(3 -1.1415e-15 0)
(3 -5.16307e-12 0)
(1.28532 0.099999 0)
(0.775509 0.0800855 0)
(0.751841 0.0952721 0)
(0.734962 0.0962723 0)
(0.717869 0.0939409 0)
(0.701398 0.0901658 0)
(0.685821 0.0879247 0)
(0.671325 0.0886064 0)
(0.657644 0.091975 0)
(0.644087 0.0969136 0)
(0.6296 0.101245 0)
(0.613847 0.102753 0)
(0.597446 0.101045 0)
(0.58118 0.0980136 0)
(0.565449 0.09676 0)
(0.550603 0.0986947 0)
(0.536595 0.102934 0)
(0.52241 0.10671 0)
(0.507642 0.107182 0)
(0.492826 0.104882 0)
(0.477564 0.104501 0)
(0.462413 0.108112 0)
(0.446774 0.112053 0)
(0.430582 0.112979 0)
(0.414406 0.113176 0)
(0.398302 0.114957 0)
(0.382167 0.117522 0)
(0.365787 0.119702 0)
(0.349123 0.121482 0)
(0.332125 0.123178 0)
(0.314761 0.124978 0)
(0.297007 0.126937 0)
(0.278843 0.128847 0)
(0.260302 0.130541 0)
(0.241473 0.132139 0)
(0.222448 0.133701 0)
(0.203308 0.135161 0)
(0.184124 0.136528 0)
(0.164941 0.13793 0)
(0.145771 0.139418 0)
(0.126614 0.14119 0)
(0.107454 0.143297 0)
(0.0882999 0.146063 0)
(0.0690977 0.149409 0)
(0.0498356 0.153424 0)
(0.030089 0.156049 0)
(0.010504 0.159109 0)
(3 2.77945e-17 0)
(3 -2.97756e-16 0)
(3 -3.60577e-16 0)
(3 6.35615e-18 0)
(3 4.96758e-17 0)
(3 -2.66643e-17 0)
(3 -4.00547e-16 0)
(3 -6.91838e-16 0)
(3 -3.69731e-16 0)
(3 -2.87072e-17 0)
(3 3.72889e-16 0)
(3 4.39914e-16 0)
(3 2.62565e-16 0)
(3 -7.16243e-16 0)
(3 -9.54109e-16 0)
(3 -6.31062e-16 0)
(3 -1.78318e-16 0)
(3 7.03109e-16 0)
(3 8.93324e-16 0)
(3 7.13527e-16 0)
(3 3.53863e-16 0)
(3 4.91183e-16 0)
(3 3.78142e-16 0)
(3 8.27777e-18 0)
(3 -2.23649e-16 0)
(3 -2.80643e-16 0)
(3 2.93639e-16 0)
(3 3.92581e-16 0)
(3 8.80635e-16 0)
(3 1.48735e-15 0)
(3 1.69172e-15 0)
(3 1.31176e-15 0)
(3 1.29881e-15 0)
(3 8.54568e-16 0)
(3 5.47254e-16 0)
(3 8.4784e-16 0)
(3 5.81841e-16 0)
(3 9.67208e-16 0)
(3 8.44763e-16 0)
(3 -3.91942e-17 0)
(3 -1.44199e-16 0)
(3 -1.3878e-15 0)
(3 -2.29477e-15 0)
(3 -1.25203e-15 0)
(3 -6.14737e-16 0)
(3 -8.38214e-16 0)
(3 -1.62849e-15 0)
(3 -1.82407e-15 0)
(3 -1.55897e-12 0)
(1.36411 0.114293 0)
(0.780309 0.0921429 0)
(0.752884 0.108403 0)
(0.736004 0.110027 0)
(0.718676 0.107819 0)
(0.701791 0.103365 0)
(0.68565 0.100107 0)
(0.670699 0.100223 0)
(0.656946 0.10363 0)
(0.643816 0.109106 0)
(0.629958 0.114098 0)
(0.614677 0.116159 0)
(0.59845 0.114681 0)
(0.582061 0.111408 0)
(0.565985 0.109766 0)
(0.550776 0.111614 0)
(0.536653 0.116198 0)
(0.522582 0.120556 0)
(0.507937 0.121492 0)
(0.493302 0.119207 0)
(0.478198 0.118667 0)
(0.46323 0.122392 0)
(0.44781 0.126779 0)
(0.431674 0.128049 0)
(0.415477 0.128387 0)
(0.399361 0.130347 0)
(0.383297 0.133195 0)
(0.367056 0.135687 0)
(0.350577 0.137776 0)
(0.333786 0.139781 0)
(0.316627 0.141898 0)
(0.299065 0.144203 0)
(0.281062 0.146485 0)
(0.262635 0.148548 0)
(0.24387 0.15051 0)
(0.224852 0.15243 0)
(0.205648 0.154219 0)
(0.186315 0.155851 0)
(0.166894 0.157442 0)
(0.147402 0.159015 0)
(0.127858 0.160789 0)
(0.108275 0.162817 0)
(0.0887173 0.165527 0)
(0.0691834 0.168876 0)
(0.049753 0.173137 0)
(0.0299447 0.176028 0)
(0.010454 0.179522 0)
(3 1.16318e-16 0)
(3 -1.69698e-16 0)
(3 -9.98964e-17 0)
(3 1.52937e-16 0)
(3 5.97388e-17 0)
(3 7.6177e-17 0)
(3 7.52284e-17 0)
(3 -3.23046e-16 0)
(3 -3.08584e-16 0)
(3 -3.30049e-16 0)
(3 -3.65003e-16 0)
(3 3.3755e-17 0)
(3 -1.37712e-16 0)
(3 6.13338e-16 0)
(3 8.97689e-16 0)
(3 -5.56144e-16 0)
(3 -4.01424e-16 0)
(3 2.43013e-16 0)
(3 -5.61575e-17 0)
(3 2.4453e-17 0)
(3 -4.74301e-16 0)
(3 -1.21104e-15 0)
(3 -4.13516e-16 0)
(3 1.52184e-16 0)
(3 3.77149e-16 0)
(3 4.91198e-16 0)
(3 -2.54026e-16 0)
(3 -6.96028e-16 0)
(3 -4.71209e-16 0)
(3 -2.40172e-16 0)
(3 -3.97405e-16 0)
(3 2.21549e-16 0)
(3 7.88477e-16 0)
(3 1.17693e-15 0)
(3 1.2731e-15 0)
(3 1.79445e-15 0)
(3 1.2902e-15 0)
(3 1.39483e-15 0)
(3 7.60823e-16 0)
(3 1.5018e-15 0)
(3 1.50049e-15 0)
(3 5.55986e-16 0)
(3 1.68368e-16 0)
(3 2.66118e-16 0)
(3 7.21517e-16 0)
(3 4.56155e-16 0)
(3 -2.10228e-15 0)
(3 -3.25252e-15 0)
(3 -2.62497e-13 0)
(1.46083 0.127971 0)
(0.786486 0.104948 0)
(0.754001 0.122016 0)
(0.737015 0.123987 0)
(0.71947 0.122076 0)
(0.702268 0.117166 0)
(0.685639 0.112818 0)
(0.670123 0.112059 0)
(0.655991 0.115125 0)
(0.642985 0.120858 0)
(0.629707 0.126572 0)
(0.615043 0.129379 0)
(0.599302 0.128306 0)
(0.583191 0.124921 0)
(0.567132 0.122878 0)
(0.551772 0.12451 0)
(0.537605 0.129299 0)
(0.523682 0.134194 0)
(0.509162 0.135675 0)
(0.494684 0.133493 0)
(0.479749 0.1328 0)
(0.464961 0.136593 0)
(0.449764 0.141439 0)
(0.433647 0.143149 0)
(0.417338 0.143678 0)
(0.40107 0.145793 0)
(0.384907 0.148879 0)
(0.368626 0.151648 0)
(0.352149 0.154028 0)
(0.335384 0.156332 0)
(0.318263 0.158755 0)
(0.300755 0.161401 0)
(0.282823 0.164067 0)
(0.264477 0.166532 0)
(0.245797 0.168906 0)
(0.226848 0.171246 0)
(0.207667 0.173437 0)
(0.188283 0.175418 0)
(0.168717 0.17728 0)
(0.148979 0.179011 0)
(0.129101 0.180835 0)
(0.109124 0.182786 0)
(0.0891658 0.185386 0)
(0.0692835 0.188625 0)
(0.0496596 0.193012 0)
(0.0297831 0.19608 0)
(0.0103907 0.19994 0)
(3 -5.86388e-17 0)
(3 -4.06004e-17 0)
(3 -4.47338e-16 0)
(3 -6.21089e-16 0)
(3 -5.01497e-16 0)
(3 -7.76109e-17 0)
(3 -2.44574e-16 0)
(3 -1.4313e-16 0)
(3 -4.49815e-16 0)
(3 -1.01228e-15 0)
(3 -1.58995e-15 0)
(3 -1.23003e-15 0)
(3 -4.88334e-16 0)
(3 5.27422e-16 0)
(3 9.65959e-16 0)
(3 -4.70646e-16 0)
(3 -1.31925e-16 0)
(3 -1.94714e-16 0)
(3 -9.2987e-16 0)
(3 -6.02689e-16 0)
(3 -1.91364e-16 0)
(3 -5.67733e-16 0)
(3 -2.55262e-16 0)
(3 -9.5116e-18 0)
(3 7.31e-16 0)
(3 8.22888e-16 0)
(3 -9.38333e-17 0)
(3 -5.02261e-16 0)
(3 -1.3542e-15 0)
(3 -1.70065e-15 0)
(3 -1.8689e-15 0)
(3 -1.5547e-15 0)
(3 -3.61691e-16 0)
(3 1.56584e-15 0)
(3 2.25592e-15 0)
(3 1.97841e-15 0)
(3 1.59901e-15 0)
(3 1.82151e-15 0)
(3 1.52145e-15 0)
(3 1.46975e-15 0)
(3 1.65392e-15 0)
(3 2.10449e-15 0)
(3 1.69244e-15 0)
(3 1.12459e-15 0)
(3 1.48949e-15 0)
(3 6.16404e-16 0)
(3 -4.18732e-16 0)
(3 -9.64682e-16 0)
(3 -2.15675e-14 0)
(1.5781 0.141036 0)
(0.794476 0.118652 0)
(0.755559 0.136019 0)
(0.73833 0.138183 0)
(0.720476 0.136692 0)
(0.70298 0.131559 0)
(0.686027 0.1261 0)
(0.670042 0.124261 0)
(0.655458 0.126799 0)
(0.642202 0.132436 0)
(0.629093 0.138569 0)
(0.614806 0.142199 0)
(0.599341 0.141728 0)
(0.583437 0.138389 0)
(0.567455 0.135964 0)
(0.552023 0.137275 0)
(0.537858 0.142146 0)
(0.524164 0.147548 0)
(0.509847 0.149659 0)
(0.495592 0.147677 0)
(0.480972 0.146819 0)
(0.466581 0.150613 0)
(0.451911 0.155909 0)
(0.436123 0.158153 0)
(0.419974 0.158947 0)
(0.403768 0.161237 0)
(0.387643 0.164564 0)
(0.371385 0.167622 0)
(0.354912 0.170306 0)
(0.338124 0.172916 0)
(0.320957 0.175639 0)
(0.303395 0.178609 0)
(0.285417 0.181644 0)
(0.267041 0.184506 0)
(0.248347 0.187295 0)
(0.229391 0.190073 0)
(0.210186 0.192708 0)
(0.190733 0.195105 0)
(0.17103 0.197325 0)
(0.151065 0.199308 0)
(0.13087 0.201263 0)
(0.110497 0.203185 0)
(0.0901082 0.205665 0)
(0.0698103 0.208713 0)
(0.0498849 0.213119 0)
(0.0298226 0.216263 0)
(0.0103926 0.220397 0)
(3 -2.05801e-16 0)
(3 -2.69991e-16 0)
(3 -2.28566e-16 0)
(3 -4.97371e-16 0)
(3 -3.14526e-16 0)
(3 -4.37611e-16 0)
(3 -3.2144e-16 0)
(3 -2.1342e-17 0)
(3 -5.96291e-16 0)
(3 -1.21401e-15 0)
(3 -9.56007e-16 0)
(3 -5.25047e-16 0)
(3 3.5727e-16 0)
(3 4.67352e-16 0)
(3 7.9527e-16 0)
(3 1.24464e-15 0)
(3 3.60682e-16 0)
(3 -1.82436e-16 0)
(3 -2.34022e-16 0)
(3 -3.28883e-16 0)
(3 8.85285e-16 0)
(3 1.15002e-15 0)
(3 4.93259e-16 0)
(3 1.01247e-16 0)
(3 -2.08793e-16 0)
(3 1.34668e-16 0)
(3 6.10072e-16 0)
(3 1.93641e-16 0)
(3 -8.77763e-16 0)
(3 -5.2942e-16 0)
(3 -3.88319e-16 0)
(3 -5.65336e-16 0)
(3 -6.67791e-17 0)
(3 1.03341e-15 0)
(3 1.79093e-15 0)
(3 1.35103e-15 0)
(3 1.45734e-15 0)
(3 1.34181e-15 0)
(3 1.29534e-15 0)
(3 1.20314e-15 0)
(3 1.31614e-15 0)
(3 1.14764e-15 0)
(3 4.48988e-16 0)
(3 -1.99596e-16 0)
(3 -3.05305e-16 0)
(3 -4.62468e-16 0)
(3 -4.62948e-16 0)
(3 -5.75429e-16 0)
(3 -9.08289e-16 0)
(1.71975 0.152953 0)
(0.805942 0.133146 0)
(0.757803 0.149986 0)
(0.740552 0.152444 0)
(0.722573 0.151547 0)
(0.70487 0.146469 0)
(0.687689 0.140025 0)
(0.671327 0.136912 0)
(0.656379 0.138786 0)
(0.642758 0.144249 0)
(0.629478 0.150855 0)
(0.615182 0.155142 0)
(0.599696 0.155285 0)
(0.583726 0.152063 0)
(0.567639 0.149239 0)
(0.551983 0.150101 0)
(0.537629 0.15488 0)
(0.524008 0.160708 0)
(0.509753 0.163481 0)
(0.495512 0.161763 0)
(0.481021 0.160668 0)
(0.466831 0.164345 0)
(0.452627 0.17007 0)
(0.437217 0.172948 0)
(0.421343 0.174088 0)
(0.405374 0.17659 0)
(0.389493 0.180187 0)
(0.373479 0.183567 0)
(0.357234 0.186592 0)
(0.34064 0.189548 0)
(0.323616 0.192608 0)
(0.306143 0.195929 0)
(0.288205 0.199355 0)
(0.269818 0.202628 0)
(0.251073 0.205839 0)
(0.23204 0.209058 0)
(0.212736 0.21215 0)
(0.19316 0.214993 0)
(0.173303 0.217624 0)
(0.153131 0.219927 0)
(0.132668 0.222085 0)
(0.111963 0.224034 0)
(0.0912014 0.22641 0)
(0.070521 0.229223 0)
(0.0502802 0.233568 0)
(0.029989 0.236699 0)
(0.0104364 0.241021 0)
(3 1.21429e-16 0)
(3 6.19853e-17 0)
(3 1.43383e-16 0)
(3 1.09274e-16 0)
(3 -3.71448e-16 0)
(3 -5.80261e-16 0)
(3 -5.53321e-16 0)
(3 -4.63266e-16 0)
(3 -2.71711e-16 0)
(3 -7.07887e-18 0)
(3 4.22951e-16 0)
(3 2.79815e-16 0)
(3 6.20361e-16 0)
(3 1.03533e-15 0)
(3 1.11366e-15 0)
(3 2.01005e-15 0)
(3 1.50998e-15 0)
(3 9.41417e-16 0)
(3 5.63152e-16 0)
(3 2.46038e-16 0)
(3 5.62688e-16 0)
(3 1.48637e-16 0)
(3 -4.32681e-16 0)
(3 -4.50105e-16 0)
(3 4.33329e-16 0)
(3 1.62659e-15 0)
(3 1.58258e-15 0)
(3 8.73414e-16 0)
(3 4.15395e-16 0)
(3 3.76879e-16 0)
(3 4.36142e-16 0)
(3 -1.93725e-16 0)
(3 -4.16111e-16 0)
(3 -9.82276e-16 0)
(3 -1.19994e-16 0)
(3 1.00971e-16 0)
(3 4.98446e-16 0)
(3 4.54542e-16 0)
(3 5.09605e-16 0)
(3 1.06997e-15 0)
(3 7.27471e-16 0)
(3 3.07024e-16 0)
(3 1.09599e-15 0)
(3 1.30136e-15 0)
(3 7.58849e-16 0)
(3 2.80042e-16 0)
(3 -2.93451e-16 0)
(3 5.43922e-17 0)
(3 -2.67959e-15 0)
(1.88825 0.162856 0)
(0.8223 0.14817 0)
(0.760489 0.164431 0)
(0.743638 0.166182 0)
(0.726258 0.166025 0)
(0.708866 0.161334 0)
(0.691866 0.15419 0)
(0.675409 0.149708 0)
(0.660217 0.150547 0)
(0.646444 0.155893 0)
(0.633045 0.162865 0)
(0.618684 0.167896 0)
(0.603175 0.168751 0)
(0.587115 0.165825 0)
(0.570887 0.16266 0)
(0.554935 0.163036 0)
(0.540234 0.167649 0)
(0.526487 0.173853 0)
(0.512091 0.177346 0)
(0.497547 0.176012 0)
(0.482835 0.174628 0)
(0.468411 0.178023 0)
(0.454284 0.18404 0)
(0.43899 0.187544 0)
(0.423177 0.189035 0)
(0.407277 0.191717 0)
(0.391515 0.19555 0)
(0.375672 0.19925 0)
(0.359637 0.202642 0)
(0.343276 0.206002 0)
(0.326473 0.209481 0)
(0.309185 0.213238 0)
(0.29137 0.217131 0)
(0.273025 0.220878 0)
(0.254248 0.224546 0)
(0.23513 0.228215 0)
(0.215715 0.231762 0)
(0.196013 0.235054 0)
(0.176018 0.238112 0)
(0.155675 0.240778 0)
(0.134991 0.243201 0)
(0.113996 0.245254 0)
(0.0928798 0.247588 0)
(0.0717929 0.250182 0)
(0.0511459 0.254441 0)
(0.0304781 0.25751 0)
(0.0105941 0.261956 0)
(3 3.25604e-17 0)
(3 1.76799e-16 0)
(3 5.63005e-17 0)
(3 1.0162e-16 0)
(3 8.45031e-17 0)
(3 -3.93049e-16 0)
(3 -6.48599e-16 0)
(3 -6.93683e-16 0)
(3 -2.78618e-16 0)
(3 1.03616e-15 0)
(3 1.39666e-15 0)
(3 1.5479e-15 0)
(3 1.68116e-15 0)
(3 1.87867e-15 0)
(3 1.62977e-15 0)
(3 8.73988e-16 0)
(3 2.07549e-16 0)
(3 -8.23332e-17 0)
(3 -4.97682e-17 0)
(3 -4.78784e-17 0)
(3 1.82369e-18 0)
(3 -3.78663e-16 0)
(3 -6.44134e-16 0)
(3 -6.85898e-16 0)
(3 -6.14826e-16 0)
(3 -3.63803e-16 0)
(3 -4.737e-17 0)
(3 -7.04182e-17 0)
(3 7.83155e-17 0)
(3 -6.37492e-16 0)
(3 -1.12249e-15 0)
(3 -1.0384e-15 0)
(3 -1.49232e-15 0)
(3 -1.67662e-15 0)
(3 -1.62657e-15 0)
(3 -2.58853e-16 0)
(3 -4.88964e-16 0)
(3 -7.24688e-16 0)
(3 -6.61476e-16 0)
(3 2.75823e-16 0)
(3 7.25681e-16 0)
(3 7.82648e-16 0)
(3 8.81111e-16 0)
(3 6.57612e-16 0)
(3 -3.3927e-16 0)
(3 3.58627e-17 0)
(3 -1.0733e-16 0)
(3 1.12782e-15 0)
(3 -2.3516e-15 0)
(2.08217 0.168163 0)
(0.843076 0.165005 0)
(0.760875 0.17804 0)
(0.743862 0.179892 0)
(0.726649 0.180084 0)
(0.70932 0.176088 0)
(0.69241 0.168794 0)
(0.675963 0.163196 0)
(0.660627 0.163054 0)
(0.646979 0.167919 0)
(0.63391 0.175179 0)
(0.619782 0.180856 0)
(0.604464 0.182292 0)
(0.588554 0.179774 0)
(0.572506 0.176317 0)
(0.556688 0.176106 0)
(0.542155 0.180412 0)
(0.528851 0.186921 0)
(0.514831 0.19118 0)
(0.500304 0.190413 0)
(0.485528 0.188799 0)
(0.470868 0.191838 0)
(0.456703 0.198067 0)
(0.441425 0.202213 0)
(0.425541 0.204073 0)
(0.409552 0.206883 0)
(0.393736 0.210876 0)
(0.377916 0.214835 0)
(0.361984 0.218562 0)
(0.345803 0.222336 0)
(0.329233 0.226281 0)
(0.312194 0.230539 0)
(0.2946 0.234969 0)
(0.276408 0.239249 0)
(0.257702 0.243412 0)
(0.238582 0.24755 0)
(0.219103 0.251559 0)
(0.199286 0.255304 0)
(0.179129 0.25881 0)
(0.158569 0.261882 0)
(0.137613 0.264638 0)
(0.116288 0.266883 0)
(0.0947945 0.269263 0)
(0.0732852 0.271689 0)
(0.0522033 0.275867 0)
(0.0311062 0.27885 0)
(0.0107934 0.283378 0)
(3 2.28174e-17 0)
(3 -1.69973e-16 0)
(3 -2.68118e-16 0)
(3 1.02746e-17 0)
(3 3.87749e-16 0)
(3 2.50876e-16 0)
(3 -2.94024e-16 0)
(3 -5.88449e-16 0)
(3 -1.44535e-16 0)
(3 3.89987e-16 0)
(3 7.29083e-16 0)
(3 1.43812e-15 0)
(3 1.47025e-15 0)
(3 9.46239e-16 0)
(3 3.75746e-16 0)
(3 -6.44161e-16 0)
(3 -1.58441e-15 0)
(3 -1.38234e-15 0)
(3 -1.29694e-15 0)
(3 -1.05279e-15 0)
(3 -5.20034e-16 0)
(3 -1.58259e-16 0)
(3 -8.01958e-16 0)
(3 -1.06357e-15 0)
(3 -1.79442e-15 0)
(3 -2.59161e-15 0)
(3 -2.58059e-15 0)
(3 -1.63934e-15 0)
(3 -8.83367e-16 0)
(3 -1.37716e-15 0)
(3 -2.36155e-15 0)
(3 -2.20574e-15 0)
(3 -9.61978e-16 0)
(3 -7.31778e-16 0)
(3 -5.5088e-16 0)
(3 1.98987e-16 0)
(3 -4.32166e-17 0)
(3 -4.29676e-16 0)
(3 -1.00908e-16 0)
(3 3.58363e-17 0)
(3 6.83975e-16 0)
(3 9.28526e-16 0)
(3 -8.30885e-17 0)
(3 -1.01737e-15 0)
(3 -1.16437e-15 0)
(3 -7.46784e-16 0)
(3 8.69232e-16 0)
(3 7.41749e-16 0)
(3 5.10146e-16 0)
(2.30042 0.166668 0)
(0.873495 0.184683 0)
(0.760843 0.192023 0)
(0.744518 0.193504 0)
(0.728158 0.194836 0)
(0.712014 0.191154 0)
(0.696262 0.183804 0)
(0.680419 0.177188 0)
(0.664893 0.175826 0)
(0.65068 0.180044 0)
(0.637059 0.187573 0)
(0.622298 0.193992 0)
(0.606386 0.196181 0)
(0.590224 0.193866 0)
(0.574226 0.190027 0)
(0.558541 0.189029 0)
(0.544166 0.192835 0)
(0.531316 0.199575 0)
(0.517726 0.204713 0)
(0.503187 0.204821 0)
(0.488326 0.203129 0)
(0.473474 0.205782 0)
(0.459388 0.212126 0)
(0.444386 0.216893 0)
(0.42871 0.219138 0)
(0.412846 0.22205 0)
(0.397056 0.226154 0)
(0.381211 0.230346 0)
(0.365237 0.2344 0)
(0.349052 0.238595 0)
(0.332547 0.243027 0)
(0.315646 0.247809 0)
(0.298239 0.252797 0)
(0.280232 0.257639 0)
(0.261666 0.262331 0)
(0.242611 0.266976 0)
(0.223103 0.271493 0)
(0.203155 0.275743 0)
(0.182781 0.279746 0)
(0.161935 0.283278 0)
(0.14065 0.286429 0)
(0.118967 0.288945 0)
(0.0970888 0.291459 0)