/*--------------------------------*- C++ -*----------------------------------*\
  =========                 |
  \\      /  F ield         | OpenFOAM: The Open Source CFD Toolbox
   \\    /   O peration     | Website:  https://openfoam.org
    \\  /    A nd           | Version:  7
     \\/     M anipulation  |
\*---------------------------------------------------------------------------*/
FoamFile
{
    version     2.0;
    format      ascii;
    class       volScalarField;
    location    "3.1";
    object      rho;
}
// * * * * * * * * * * * * * * * * * * * * * * * * * * * * * * * * * * * * * //

dimensions      [1 -3 0 0 0 0 0];

internalField   nonuniform List<scalar> 
4032
(
1.40001
1.40001
1.40001
1.40001
1.40001
1.40001
1.40001
1.40001
1.40001
1.40001
1.40001
1.46651
4.14816
5.45291
5.50761
5.58231
5.65355
5.72169
5.78337
5.8362
5.87988
5.9135
5.94025
5.96143
1.40001
1.40001
1.40001
1.40001
1.40001
1.40001
1.40001
1.40001
1.40001
1.40001
1.40001
1.44357
4.0891
5.43992
5.49836
5.57218
5.64321
5.71054
5.77099
5.82177
5.86276
5.89333
5.91683
5.936
1.40001
1.40001
1.40001
1.40001
1.40001
1.40001
1.40001
1.40001
1.40001
1.40001
1.40001
1.40395
3.95601
5.42413
5.48277
5.55336
5.62307
5.68865
5.74749
5.79653
5.83577
5.86485
5.88632
5.90558
1.40001
1.40001
1.40001
1.40001
1.40001
1.40001
1.40001
1.40001
1.40001
1.40001
1.40001
1.40006
3.74233
5.38676
5.45523
5.52222
5.59074
5.65423
5.71129
5.75844
5.79525
5.82021
5.83544
5.84801
1.40001
1.40001
1.40001
1.40001
1.40001
1.40001
1.40001
1.40001
1.40001
1.40001
1.40001
1.40001
3.45487
5.32577
5.42186
5.48418
5.54974
5.6082
5.65934
5.69916
5.72843
5.74872
5.76151
5.78098
1.40001
1.40001
1.40001
1.40001
1.40001
1.40001
1.40001
1.40001
1.40001
1.40001
1.40001
1.40001
3.09919
5.23247
5.3884
5.44315
5.50126
5.55098
5.59398
5.62728
5.65165
5.66983
5.67572
5.6646
1.40001
1.40001
1.40001
1.40001
1.40001
1.40001
1.40001
1.40001
1.40001
1.40001
1.40001
1.40001
2.6904
5.09957
5.38039
5.41871
5.46288
5.49776
5.5234
5.53901
5.54125
5.52438
5.50088
5.48842
1.40001
1.40001
1.40001
1.40001
1.40001
1.40001
1.40001
1.40001
1.40001
1.40001
1.40001
1.40001
2.22363
4.90648
5.39864
5.40425
5.42859
5.44532
5.44976
5.44486
5.42057
5.38211
5.3197
5.28638
1.40001
1.40001
1.40001
1.40001
1.40001
1.40001
1.40001
1.40001
1.40001
1.40001
1.40001
1.40001
1.73499
4.63443
5.43663
5.39008
5.39788
5.39094
5.37054
5.34044
5.27587
5.16698
4.85158
4.00547
1.40001
1.40001
1.40001
1.40001
1.40001
1.40001
1.40001
1.40001
1.40001
1.40001
1.40001
1.40001
1.42963
4.07071
5.34905
5.30866
5.32798
5.3168
5.28195
5.22547
5.11954
4.92698
4.59672
3.69821
1.40001
1.40001
1.40001
1.40001
1.40001
1.40001
1.40001
1.40001
1.40001
1.40001
1.40001
1.40001
1.40004
3.29189
5.11941
5.26416
5.28365
5.25742
5.20432
5.11697
4.97953
4.74019
4.38879
3.56579
1.40001
1.40001
1.40001
1.40001
1.40001
1.40001
1.40001
1.40001
1.40001
1.40001
1.40001
1.40001
1.4
2.46144
4.87503
5.2225
5.21034
5.18805
5.13037
5.02074
4.85536
4.6073
4.21948
3.54045
1.40001
1.40001
1.40001
1.40001
1.40001
1.40001
1.40001
1.40001
1.40001
1.40001
1.40001
1.40001
1.4
1.68625
4.557
5.28286
5.17596
5.1138
5.0415
4.92238
4.74696
4.50486
4.10759
3.57375
1.40001
1.40001
1.40001
1.40001
1.40001
1.40001
1.40001
1.40001
1.40001
1.40001
1.40001
1.40001
1.40001
1.4148
3.75702
5.0356
5.03846
5.01914
4.94892
4.8309
4.66196
4.41148
4.05127
3.62291
1.40001
1.40001
1.40001
1.40001
1.40001
1.40001
1.40001
1.40001
1.40001
1.40001
1.40001
1.40001
1.40001
1.39987
2.63887
4.80741
5.02634
4.9882
4.90017
4.76689
4.59854
4.35106
4.04009
3.68388
1.40001
1.40001
1.40001
1.40001
1.40001
1.40001
1.40001
1.40001
1.40001
1.40001
1.40001
1.40001
1.40001
1.39997
1.66734
4.40512
5.07594
4.96724
4.84898
4.70066
4.53194
4.29972
4.02986
3.72776
1.40001
1.40001
1.40001
1.40001
1.40001
1.40001
1.40001
1.40001
1.40001
1.40001
1.40001
1.40001
1.40001
1.4
1.40975
3.38971
4.90898
4.88702
4.79004
4.65368
4.48218
4.2699
4.02997
3.76467
1.40001
1.40001
1.40001
1.40001
1.40001
1.40001
1.40001
1.40001
1.40001
1.40001
1.40001
1.40001
1.40001
1.4
1.39994
2.0774
4.69083
4.92868
4.78999
4.63986
4.45836
4.25308
4.02892
3.78798
1.40001
1.40001
1.40001
1.40001
1.40001
1.40001
1.40001
1.40001
1.40001
1.40001
1.40001
1.40001
1.40001
1.40001
1.39999
1.47043
3.7855
4.86478
4.74635
4.6125
4.44014
4.24617
4.03495
3.81628
1.40001
1.40001
1.40001
1.40001
1.40001
1.40001
1.40001
1.40001
1.40001
1.40001
1.40001
1.40001
1.40001
1.40001
1.4
1.40037
2.34781
4.63242
4.76003
4.62988
4.46053
4.27228
4.07104
3.8648
1.40001
1.40001
1.40001
1.40001
1.40001
1.40001
1.40001
1.40001
1.40001
1.40001
1.40001
1.40001
1.40001
1.40001
1.4
1.4
1.53117
3.7767
4.76192
4.63354
4.47343
4.29365
4.10338
3.90462
1.40001
1.40001
1.40001
1.40001
1.40001
1.40001
1.40001
1.40001
1.40001
1.40001
1.40001
1.40001
1.40001
1.40001
1.40001
1.4
1.40183
2.28085
4.47658
4.64731
4.49458
4.32646
4.14537
3.95466
1.40001
1.40001
1.40001
1.40001
1.40001
1.40001
1.40001
1.40001
1.40001
1.40001
1.40001
1.40001
1.40001
1.40001
1.40001
1.40001
1.40001
1.5096
3.54129
4.65064
4.51919
4.35473
4.17673
3.99471
1.40001
1.40001
1.40001
1.40001
1.40001
1.40001
1.40001
1.40001
1.40001
1.40001
1.40001
1.40001
1.40001
1.40001
1.40001
1.40001
1.40001
1.40148
2.09792
4.2286
4.53775
4.37387
4.21052
4.04084
1.40001
1.40001
1.40001
1.40001
1.40001
1.40001
1.40001
1.40001
1.40001
1.40001
1.40001
1.40001
1.40001
1.40001
1.40001
1.40001
1.40001
1.40001
1.46425
3.03277
4.47358
4.42004
4.26412
4.10263
1.40001
1.40001
1.40001
1.40001
1.40001
1.40001
1.40001
1.40001
1.40001
1.40001
1.40001
1.40001
1.40001
1.40001
1.40001
1.40001
1.40001
1.40001
1.40082
1.78881
3.80688
4.47788
4.32617
4.1606
1.40001
1.40001
1.40001
1.40001
1.40001
1.40001
1.40001
1.40001
1.40001
1.40001
1.40001
1.40001
1.40001
1.40001
1.40001
1.40001
1.40001
1.40001
1.40001
1.41953
2.39732
4.17367
4.36737
4.21575
1.40001
1.40001
1.40001
1.40001
1.40001
1.40001
1.40001
1.40001
1.40001
1.40001
1.40001
1.40001
1.40001
1.40001
1.40001
1.40001
1.40001
1.40001
1.40001
1.40019
1.53244
3.10022
4.29487
4.27275
1.40001
1.40001
1.40001
1.40001
1.40001
1.40001
1.40001
1.40001
1.40001
1.40001
1.40001
1.40001
1.40001
1.40001
1.40001
1.40001
1.40001
1.40001
1.40001
1.40001
1.40307
1.82768
3.62727
4.28749
1.40001
1.40001
1.40001
1.40001
1.40001
1.40001
1.40001
1.40001
1.40001
1.40001
1.40001
1.40001
1.40001
1.40001
1.40001
1.40001
1.40001
1.40001
1.40001
1.40001
1.40002
1.4246
2.24752
3.92594
1.40001
1.40001
1.40001
1.40001
1.40001
1.40001
1.40001
1.40001
1.40001
1.40001
1.40001
1.40001
1.40001
1.40001
1.40001
1.40001
1.40001
1.40001
1.40001
1.40001
1.40001
1.4003
1.49484
2.69839
1.40001
1.40001
1.40001
1.40001
1.40001
1.40001
1.40001
1.40001
1.40001
1.40001
1.40001
1.40001
1.40001
1.40001
1.40001
1.40001
1.40001
1.40001
1.40001
1.40001
1.40001
1.40001
1.40204
1.63392
1.40001
1.40001
1.40001
1.40001
1.40001
1.40001
1.40001
1.40001
1.40001
1.40001
1.40001
1.40001
1.40001
1.40001
1.40001
1.40001
1.40001
1.40001
1.40001
1.40001
1.40001
1.40001
1.40002
1.40881
1.40001
1.40001
1.40001
1.40001
1.40001
1.40001
1.40001
1.40001
1.40001
1.40001
1.40001
1.40001
1.40001
1.40001
1.40001
1.40001
1.40001
1.40001
1.40001
1.40001
1.40001
1.40001
1.40001
1.40008
1.40001
1.40001
1.40001
1.40001
1.40001
1.40001
1.40001
1.40001
1.40001
1.40001
1.40001
1.40001
1.40001
1.40001
1.40001
1.40001
1.40001
1.40001
1.40001
1.40001
1.40001
1.40001
1.40001
1.40001
1.40001
1.40001
1.40001
1.40001
1.40001
1.40001
1.40001
1.40001
1.40001
1.40001
1.40001
1.40001
1.40001
1.40001
1.40001
1.40001
1.40001
1.40001
1.40001
1.40001
1.40001
1.40001
1.40001
1.40001
1.40001
1.40001
1.40001
1.40001
1.40001
1.40001
1.40001
1.40001
1.40001
1.40001
1.40001
1.40001
1.40001
1.40001
1.40001
1.40001
1.40001
1.40001
1.40001
1.40001
1.40001
1.40001
1.40001
1.40001
1.40001
1.40001
1.40001
1.40001
1.40001
1.40001
1.40001
1.40001
1.40001
1.40001
1.40001
1.40001
1.40001
1.40001
1.40001
1.40001
1.40001
1.40001
1.40001
1.40001
1.40001
1.40001
1.40001
1.40001
1.40001
1.40001
1.40001
1.40001
1.40001
1.40001
1.40001
1.40001
1.40001
1.40001
1.40001
1.40001
1.40001
1.40001
1.40001
1.40001
1.40001
1.40001
1.40001
1.40001
1.40001
1.40001
1.40001
1.40001
1.40001
1.40001
1.40001
1.40001
1.40001
1.40001
1.40001
1.40001
1.40001
1.40001
1.40001
1.40001
1.40001
1.40001
1.40001
1.40001
1.40001
1.40001
1.40001
1.40001
1.40001
1.40001
1.40001
1.40001
1.32951
0.471693
0.208409
0.211018
0.261169
0.298986
0.359877
0.473398
0.612437
0.708899
0.760098
0.805026
0.863747
0.954606
1.04206
1.05802
1.0457
1.01859
1.01676
1.01542
1.02473
1.05924
1.08254
1.08433
1.0831
1.07744
1.07844
1.08412
1.08875
1.09214
1.09078
1.09455
2.16502
2.99907
3.09365
3.13668
3.15442
3.13974
3.1184
3.09445
3.0764
3.06331
3.05069
3.03378
3.00479
2.96755
2.92956
2.89544
2.86933
2.85227
2.83616
2.80402
2.7616
2.71503
2.67332
2.63964
2.61821
2.60553
2.58286
2.54812
2.50961
2.46592
2.42659
2.39922
2.37769
2.36447
2.35911
2.34549
2.32035
2.28992
2.24752
2.19468
2.15427
2.12968
2.11174
2.09922
2.0891
2.07186
2.04945
2.01557
1.9686
1.93396
1.91605
1.90275
1.89655
1.89792
1.88795
1.87078
1.8464
1.80416
1.74964
1.71295
1.69489
1.68268
1.67623
1.66833
1.9863
1.25018
0.819105
0.668634
0.631192
0.568209
0.545394
0.548409
0.567481
0.61384
0.657804
0.702261
0.756784
0.832338
0.930356
0.994234
1.00325
1.00174
1.01105
1.02625
1.0447
1.07934
1.10518
1.10755
1.10323
1.09579
1.09505
1.09954
1.10672
1.10943
1.109
1.12766
2.09572
3.12709
3.2078
3.18982
3.21359
3.20372
3.17286
3.12586
3.0856
3.06618
3.06438
3.06929
3.05975
3.02092
2.96879
2.91724
2.8738
2.84557
2.83526
2.82526
2.80023
2.76432
2.72079
2.67392
2.63387
2.60223
2.57698
2.55451
2.52554
2.49515
2.46
2.42293
2.39441
2.37279
2.35269
2.33036
2.30768
2.28274
2.25136
2.21946
2.18386
2.14654
2.11802
2.09921
2.082
2.06634
2.04766
2.02157
1.98758
1.95157
1.925
1.90981
1.89791
1.88693
1.87565
1.85968
1.83867
1.80929
1.77316
1.73521
1.70519
1.68822
1.67993
1.66496
2.47946
1.85376
1.43953
1.11915
0.955995
0.835844
0.731746
0.699662
0.660805
0.663885
0.701106
0.747769
0.772038
0.794831
0.851475
0.930688
0.977306
1.01142
1.04687
1.09091
1.1167
1.139
1.15672
1.16403
1.16235
1.15377
1.14434
1.13973
1.13889
1.14421
1.17399
1.29941
2.07373
3.30889
3.46182
3.36406
3.34888
3.35182
3.33608
3.28912
3.23174
3.18261
3.15232
3.14117
3.14191
3.12588
3.08738
3.03925
2.97785
2.92181
2.88375
2.85998
2.8441
2.82595
2.79802
2.76226
2.71252
2.65083
2.6024
2.57094
2.54636
2.52743
2.5077
2.48397
2.45236
2.40899
2.36439
2.33135
2.30162
2.27455
2.25641
2.24298
2.22325
2.19704
2.15808
2.11503
2.087
2.06508
2.04229
2.02285
2.00531
1.98601
1.95887
1.92612
1.9025
1.88654
1.86992
1.85119
1.82889
1.8077
1.79114
1.77161
1.74309
1.70818
1.68622
1.66627
2.80967
2.26472
1.8658
1.56216
1.32776
1.14951
1.01661
0.954194
0.890339
0.827604
0.819798
0.804261
0.771228
0.760857
0.775698
0.814036
0.876705
0.940221
0.991054
1.05387
1.09978
1.11903
1.14036
1.16834
1.19901
1.20415
1.20255
1.19285
1.18591
1.19799
1.34149
1.73242
2.09808
2.87068
3.43614
3.51967
3.53553
3.50476
3.46541
3.41083
3.36789
3.31293
3.26283
3.23562
3.21645
3.2003
3.17289
3.13675
3.0906
3.02574
2.96515
2.92908
2.90222
2.88311
2.86146
2.83094
2.79261
2.73609
2.66817
2.61993
2.59096
2.56705
2.54793
2.52867
2.50341
2.46633
2.41145
2.35897
2.32512
2.3017
2.28523
2.27331
2.25813
2.23809
2.21005
2.16186
2.10781
2.07568
2.05633
2.04136
2.02934
2.01576
1.99738
1.96735
1.92619
1.89375
1.87059
1.84947
1.83155
1.81841
1.80831
1.79642
1.77996
1.75157
1.71299
1.67362
3.04667
2.60231
2.19342
1.89497
1.66611
1.446
1.28276
1.1901
1.10512
1.00895
0.94654
0.9072
0.862474
0.81117
0.797346
0.804898
0.819346
0.843637
0.879477
0.938336
1.00364
1.04726
1.08317
1.13087
1.1741
1.19069
1.19823
1.19965
1.21584
1.33759
1.74869
2.20283
2.26104
2.38733
2.83428
3.27875
3.49727
3.58589
3.57359
3.51655
3.46185
3.40789
3.34335
3.29613
3.26715
3.2461
3.23222
3.20416
3.16794
3.11847
3.05259
2.99835
2.96365
2.93507
2.91015
2.88126
2.84817
2.80577
2.74579
2.6833
2.64204
2.6145
2.58953
2.5653
2.5388
2.50466
2.45583
2.40078
2.36523
2.3436
2.32657
2.31181
2.2927
2.27208
2.24661
2.20594
2.14693
2.10339
2.08482
2.07085
2.05936
2.04576
2.02868
2.00309
1.95722
1.90804
1.88031
1.86445
1.85299
1.84535
1.83711
1.82434
1.80957
1.78986
1.75434
1.69131
3.1994
2.82272
2.46843
2.16312
1.92358
1.71106
1.53214
1.41024
1.30603
1.20762
1.11686
1.04885
1.01299
0.971462
0.921621
0.879407
0.860026
0.861224
0.857933
0.86372
0.880328
0.908668
0.945203
0.99757
1.06088
1.11883
1.16267
1.19171
1.32592
1.73389
2.13477
2.33806
2.3443
2.33387
2.37856
2.6632
3.13713
3.45155
3.55211
3.55619
3.50587
3.45177
3.38916
3.32014
3.27934
3.25323
3.24273
3.22503
3.19379
3.15828
3.10862
3.04516
2.98994
2.95298
2.9239
2.89793
2.8709
2.83981
2.79751
2.73979
2.68004
2.63956
2.61238
2.58776
2.56281
2.53435
2.50094
2.46243
2.42013
2.3841
2.35847
2.33595
2.31465
2.29475
2.27178
2.23947
2.19701
2.14957
2.11478
2.0967
2.08179
2.06687
2.05002
2.02571
1.98286
1.92955
1.89918
1.88543
1.87495
1.8686
1.86148
1.84954
1.83641
1.81999
1.78973
1.71552
3.33039
2.9835
2.6638
2.39424
2.15113
1.92668
1.75443
1.61145
1.48374
1.38513
1.30722
1.20553
1.11515
1.07923
1.04103
0.991459
0.940708
0.906043
0.881748
0.875172
0.883093
0.885868
0.885455
0.891919
0.919318
0.973505
1.05064
1.19318
1.60278
2.07386
2.237
2.31175
2.32006
2.31247
2.29655
2.337
2.55699
2.99674
3.37521
3.47919
3.50103
3.46252
3.41789
3.35884
3.29881
3.2627
3.23435
3.21651
3.1963
3.16518
3.12802
3.08157
3.02487
2.96737
2.92658
2.89874
2.8757
2.84878
2.81757
2.77758
2.72276
2.66344
2.62152
2.5938
2.57074
2.54997
2.52807
2.50332
2.47166
2.43131
2.38923
2.3568
2.33367
2.3117
2.285
2.2564
2.22902
2.19791
2.15585
2.11715
2.09818
2.08313
2.06294
2.03657
2.0017
1.9648
1.93244
1.90973
1.89702
1.88944
1.88482
1.87505
1.8612
1.8421
1.81119
1.73854
3.42253
3.10726
2.8237
2.57376
2.33098
2.11239
1.95082
1.799
1.65093
1.53497
1.45888
1.36906
1.26932
1.19129
1.15207
1.11352
1.06905
1.01715
0.967227
0.944757
0.938346
0.926104
0.90657
0.890925
0.889701
0.899785
0.968772
1.32844
1.8105
2.0401
2.12685
2.16066
2.19946
2.23904
2.28262
2.2997
2.31589
2.44977
2.86386
3.2337
3.41345
3.44793
3.42019
3.38317
3.3387
3.29189
3.24364
3.20621
3.17289
3.14899
3.12544
3.09645
3.06166
3.01098
2.94764
2.89715
2.86506
2.83984
2.81727
2.79113
2.75634
2.70598
2.64725
2.60398
2.57783
2.55774
2.5408
2.52175
2.49947
2.47096
2.43226
2.38455
2.33679
2.30066
2.2814
2.2664
2.24793
2.22344
2.19225
2.1515
2.10925
2.07697
2.052
2.02828
2.00907
1.99222
1.97384
1.94958
1.92116
1.89987
1.88447
1.86856
1.85156
1.83288
1.81294
1.76061
3.49401
3.21334
2.95397
2.72087
2.48391
2.28093
2.11597
1.96445
1.80257
1.69098
1.59202
1.49287
1.40368
1.33662
1.26827
1.20661
1.1709
1.13852
1.08427
1.00864
0.979856
0.969831
0.949625
0.922513
0.918658
0.972387
1.25814
1.68205
1.84111
1.88749
1.89602
1.93179
2.00283
2.08888
2.16539
2.2126
2.22991
2.25152
2.35655
2.68663
3.10152
3.32334
3.37426
3.38213
3.35922
3.33378
3.28646
3.21486
3.16201
3.12964
3.1068
3.09545
3.0764
3.04516
2.99504
2.92146
2.86312
2.83231
2.80862
2.79021
2.76792
2.73949
2.69796
2.64068
2.58993
2.55918
2.53701
2.5218
2.5067
2.48631
2.45932
2.41476
2.35333
2.30776
2.27868
2.25503
2.23489
2.21887
2.20204
2.17533
2.12913
2.07935
2.04918
2.0327
2.02077
2.0102
1.99739
1.97957
1.94913
1.91071
1.8833
1.86476
1.84692
1.82616
1.80661
1.77226
3.54617
3.29787
3.0592
2.83941
2.62522
2.42864
2.25645
2.10172
1.95188
1.83369
1.72877
1.61675
1.5151
1.45704
1.40144
1.31801
1.25221
1.23133
1.19903
1.13313
1.06249
1.03979
1.02432
1.00509
1.04193
1.29041
1.719
1.89781
1.87413
1.85192
1.83583
1.83621
1.84584
1.87284
1.91828
1.98038
2.03868
2.09009
2.12466
2.21314
2.47379
2.91698
3.18721
3.30159
3.36397
3.3621
3.32687
3.26293
3.17516
3.12033
3.09289
3.07856
3.07379
3.05478
3.02491
2.96919
2.88449
2.83221
2.80458
2.78168
2.76777
2.75226
2.72804
2.68729
2.62305
2.56887
2.53737
2.5145
2.49791
2.48343
2.46319
2.43231
2.38615
2.32822
2.28026
2.25131
2.23269
2.21594
2.19865
2.17863
2.14749
2.10059
2.06109
2.04298
2.02998
2.01833
2.00583
1.99114
1.96717
1.92651
1.88583
1.85918
1.84088
1.82292
1.80731
1.7793
3.59496
3.37084
3.15693
2.94571
2.7352
2.55634
2.39423
2.22874
2.08059
1.96142
1.85227
1.74876
1.642
1.5605
1.50209
1.44235
1.36799
1.30205
1.26954
1.22993
1.17172
1.1219
1.09344
1.12168
1.34387
1.7803
2.00524
1.99003
1.94158
1.9075
1.88194
1.85336
1.83663
1.83422
1.83461
1.84155
1.86323
1.88658
1.91018
1.93877
1.99836
2.21483
2.62002
3.00905
3.23398
3.3276
3.33919
3.29785
3.22308
3.13682
3.09067
3.06624
3.06043
3.05361
3.03024
2.99208
2.92855
2.85354
2.80754
2.78176
2.76744
2.75465
2.7324
2.70272
2.66047
2.60301
2.54963
2.51347
2.48773
2.46741
2.449
2.42915
2.40284
2.36052
2.30609
2.26157
2.23424
2.21421
2.196
2.1776
2.15666
2.12943
2.09506
2.05979
2.03551
2.02045
2.0076
1.9938
1.97383
1.94212
1.89829
1.8595
1.83635
1.8208
1.80965
1.78648
3.65065
3.43909
3.23802
3.03406
2.83774
2.66718
2.50393
2.33721
2.20541
2.08738
1.96774
1.84969
1.76311
1.67752
1.59324
1.53467
1.47766
1.40109
1.33793
1.30202
1.26206
1.21763
1.25063
1.49682
1.90403
2.13333
2.11857
2.07869
2.04108
2.01939
1.99181
1.95081
1.89928
1.85436
1.83541
1.82565
1.82667
1.83404
1.8329
1.82369
1.80883
1.81919
1.92646
2.24778
2.70316
3.0492
3.24846
3.2678
3.25408
3.19422
3.12399
3.06219
3.02378
3.00016
2.99088
2.97815
2.9468
2.90147
2.84437
2.79155
2.75425
2.72851
2.71243
2.6958
2.66986
2.63137
2.58247
2.52787
2.48402
2.45714
2.43783
2.4195
2.39816
2.37318
2.33933
2.29311
2.24842
2.21787
2.19562
2.17671
2.15955
2.1433
2.12408
2.09415
2.05685
2.02582
2.00297
1.9846
1.96839
1.94906
1.91704
1.87575
1.84164
1.82081
1.81081
1.79136
3.6973
3.49684
3.30669
3.11262
2.92949
2.76697
2.60771
2.44711
2.31488
2.19427
2.07312
1.95795
1.87265
1.78695
1.68941
1.61679
1.56918
1.50873
1.4286
1.37001
1.33756
1.38422
1.66933
2.13242
2.32263
2.27044
2.21447
2.17345
2.1508
2.12284
2.08899
2.05184
2.00187
1.94266
1.89932
1.86885
1.84561
1.83039
1.82061
1.81829
1.81221
1.78879
1.74896
1.76238
1.91358
2.28808
2.73559
3.0521
3.18523
3.21151
3.17989
3.10511
3.02639
2.97374
2.94809
2.9353
2.93627
2.9154
2.88171
2.82808
2.76299
2.71657
2.68716
2.66491
2.64676
2.62873
2.60259
2.56417
2.5137
2.464
2.43165
2.41275
2.39735
2.37998
2.35459
2.31848
2.27395
2.22987
2.20059
2.18301
2.16942
2.15633
2.14025
2.11636
2.08266
2.04284
2.0089
1.98396
1.96363
1.94416
1.92255
1.894
1.86209
1.83163
1.81608
1.79633
3.75629
3.56502
3.37867
3.19216
3.02324
2.86381
2.70121
2.55012
2.42215
2.29868
2.17181
2.0593
1.97077
1.88646
1.79934
1.71041
1.64563
1.5859
1.52401
1.46415
1.51266
1.81136
2.30821
2.5269
2.49653
2.39636
2.30746
2.27171
2.24895
2.21968
2.18664
2.15485
2.11645
2.05917
1.99296
1.94658
1.91406
1.88314
1.853
1.83225
1.81777
1.80306
1.7751
1.73022
1.70496
1.73554
1.92241
2.3396
2.75955
3.07297
3.13999
3.13872
3.06924
2.98128
2.93721
2.9147
2.90537
2.90672
2.88672
2.85383
2.79606
2.72083
2.67536
2.65199
2.63226
2.61488
2.60011
2.57992
2.54767
2.49387
2.44371
2.41086
2.38446
2.3586
2.33638
2.3171
2.29245
2.25767
2.22206
2.19259
2.16719
2.14488
2.12785
2.11252
2.09342
2.06433
2.02732
1.99168
1.96446
1.94432
1.92563
1.90586
1.8835
1.85486
1.83001
1.80064
3.81171
3.63046
3.44781
3.27178
3.11161
2.95301
2.79011
2.65116
2.52098
2.39249
2.26239
2.16522
2.07045
1.97411
1.88087
1.8089
1.73456
1.66547
1.60633
1.66548
1.99341
2.45652
2.68842
2.6654
2.60106
2.52424
2.43281
2.37308
2.34129
2.31298
2.28116
2.24706
2.2106
2.16395
2.09356
2.02299
1.98314
1.95329
1.92464
1.89721
1.86939
1.84393
1.81658
1.77207
1.70525
1.69363
1.69178
1.74081
1.97382
2.41434
2.8005
3.03168
3.04607
3.02786
2.96563
2.91731
2.90238
2.8901
2.87328
2.85206
2.81959
2.75329
2.68372
2.6491
2.62673
2.61024
2.59973
2.58252
2.56051
2.52212
2.46246
2.40921
2.37804
2.35589
2.33579
2.31465
2.2934
2.27047
2.23913
2.19996
2.16627
2.14357
2.12572
2.10805
2.08972
2.06987
2.0428
2.00664
1.9708
1.94458
1.92579
1.91021
1.89375
1.87459
1.85097
1.80779
3.87007
3.69799
3.52277
3.35653
3.19655
3.03599
2.88095
2.74767
2.6171
2.48441
2.36
2.26164
2.16381
2.06636
1.97217
1.88752
1.81683
1.7698
1.86064
2.24966
2.6547
2.81421
2.81077
2.76055
2.71296
2.66075
2.58205
2.48642
2.43432
2.40198
2.37055
2.33629
2.30084
2.25979
2.20005
2.12026
2.05854
2.02096
1.99131
1.96429
1.93666
1.90686
1.87266
1.82798
1.76891
1.71645
1.68774
1.68487
1.69076
1.76151
2.02072
2.44283
2.77532
2.94236
2.97077
2.9492
2.92582
2.90072
2.87242
2.843
2.81643
2.77513
2.71695
2.67461
2.64578
2.62239
2.60076
2.579
2.55708
2.52957
2.47896
2.41506
2.37872
2.35826
2.3393
2.32052
2.30128
2.27797
2.24467
2.19901
2.16247
2.14162
2.12398
2.10671
2.08977
2.07206
2.04954
2.01585
1.9747
1.95063
1.93938
1.92707
1.91108
1.89222
1.86812
1.81618
3.93569
3.76435
3.59722
3.43682
3.27652
3.11352
2.97127
2.83881
2.70853
2.57181
2.46078
2.35769
2.2568
2.15246
2.05215
1.97288
1.93046
2.06358
2.5431
2.99933
3.04639
2.97444
2.9044
2.86576
2.83397
2.78166
2.71179
2.6155
2.53411
2.49061
2.4539
2.41742
2.37958
2.33759
2.28597
2.21701
2.14254
2.09127
2.05636
2.02461
1.99325
1.9628
1.93198
1.89639
1.84813
1.78707
1.73753
1.70735
1.68366
1.67904
1.6884
1.7738
2.05331
2.42274
2.76437
2.87579
2.92069
2.93672
2.90209
2.86238
2.8208
2.7742
2.7324
2.70172
2.67352
2.6446
2.61479
2.58603
2.55682
2.52327
2.47815
2.41981
2.3807
2.36168
2.34533
2.32965
2.31229
2.28991
2.25506
2.20193
2.15711
2.13433
2.11761
2.10267
2.08855
2.07327
2.05371
2.0246
1.98746
1.95477
1.93121
1.9132
1.89535
1.87544
1.85615
1.81704
3.99185
3.82249
3.66214
3.5056
3.34801
3.19572
3.06039
2.92651
2.79314
2.66484
2.55907
2.44989
2.34744
2.23072
2.13943
2.11244
2.29541
2.79741
3.2721
3.31225
3.21769
3.08449
3.00903
2.97089
2.93704
2.8812
2.81747
2.74154
2.65375
2.58299
2.53471
2.49251
2.45029
2.40674
2.36056
2.30635
2.23977
2.17362
2.12456
2.08703
2.05302
2.02014
1.98666
1.95203
1.91156
1.8623
1.81044
1.76542
1.73174
1.70138
1.67441
1.66412
1.67852
1.77301
2.04814
2.40003
2.6923
2.86327
2.89293
2.88435
2.8413
2.79462
2.75212
2.7112
2.68206
2.65826
2.63158
2.60272
2.56881
2.52787
2.47859
2.42028
2.38105
2.36305
2.34797
2.3335
2.31824
2.29995
2.26951
2.21501
2.1604
2.13211
2.11425
2.09831
2.08374
2.06983
2.05371
2.0313
1.9997
1.9611
1.92957
1.90804
1.88955
1.86976
1.84927
1.80894
4.04689
3.88652
3.7303
3.57504
3.42053
3.28292
3.14758
3.01276
2.87355
2.76145
2.64681
2.54131
2.42118
2.30965
2.32175
2.57902
3.09606
3.47374
3.5716
3.49723
3.37803
3.23702
3.12948
3.0758
3.03214
2.9794
2.92108
2.85703
2.77979
2.69263
2.61898
2.56452
2.5174
2.47188
2.42697
2.38042
2.32708
2.26484
2.20367
2.1526
2.10921
2.07016
2.03331
1.99854
1.96232
1.9212
1.87497
1.83207
1.79856
1.76605
1.73528
1.69934
1.66719
1.63942
1.64739
1.74578
2.0029
2.38447
2.65525
2.80385
2.83861
2.83744
2.80041
2.73777
2.67842
2.6522
2.6324
2.6099
2.58059
2.5431
2.49766
2.44233
2.39194
2.3671
2.35122
2.33602
2.321
2.30389
2.276
2.22926
2.17209
2.13422
2.11462
2.09829
2.08101
2.06491
2.04937
2.03207
2.00888
1.97458
1.93611
1.90545
1.8828
1.86076
1.83826
1.80204
4.12339
3.96502
3.81078
3.65504
3.50558
3.36766
3.23235
3.09245
2.96381
2.84793
2.72943
2.61839
2.49884
2.55149
2.95377
3.53315
3.74311
3.74731
3.68069
3.60586
3.51838
3.40666
3.27939
3.18613
3.12619
3.0745
3.01808
2.95681
2.88784
2.80663
2.72167
2.64953
2.59124
2.53921
2.49026
2.44295
2.39433
2.34079
2.28384
2.23091
2.18391
2.13975
2.09559
2.0525
2.01007
1.96662
1.91989
1.87495
1.83868
1.80971
1.78601
1.75888
1.72371
1.68627
1.64477
1.60519
1.61371
1.73027
2.00699
2.34331
2.63505
2.7683
2.7799
2.75437
2.70366
2.64677
2.61111
2.58782
2.57017
2.5455
2.51257
2.47572
2.43244
2.38855
2.35826
2.33569
2.31347
2.29084
2.26718
2.23715
2.19653
2.15085
2.11462
2.09544
2.08255
2.0719
2.06018
2.04402
2.02089
1.98544
1.94325
1.9065
1.88107
1.85743
1.83212
1.7978
4.2054
4.04581
3.88584
3.7291
3.58641
3.44653
3.30731
3.16582
3.049
2.91877
2.81239
2.70461
2.81565
3.30018
3.97332
4.16837
4.04293
3.88395
3.75946
3.6986
3.64418
3.55518
3.44417
3.32757
3.23591
3.16902
3.10765
3.04402
2.97633
2.90295
2.8243
2.74768
2.68001
2.6198
2.56341
2.50918
2.45595
2.40231
2.34731
2.29373
2.24539
2.20205
2.16014
2.1172
2.07165
2.02306
1.97212
1.9217
1.87407
1.83344
1.80369
1.78102
1.76068
1.73376
1.69297
1.64973
1.6041
1.58052
1.60077
1.71433
2.00276
2.33453
2.60928
2.68401
2.67232
2.64004
2.60017
2.58235
2.56493
2.5458
2.529
2.50332
2.46223
2.41155
2.37239
2.34418
2.31844
2.2902
2.2597
2.23207
2.20642
2.17197
2.1344
2.10637
2.0837
2.06272
2.04353
2.02405
2.00254
1.9823
1.95562
1.91941
1.88514
1.85402
1.83047
1.80546
4.24008
4.13199
3.96357
3.81067
3.66543
3.52787
3.37565
3.25433
3.1219
3.01193
2.95235
3.16161
3.7395
4.22788
4.43297
4.35114
4.19484
4.02911
3.89766
3.82524
3.76905
3.68916
3.59292
3.4852
3.37333
3.2779
3.20122
3.12979
3.05885
2.98858
2.91829
2.84742
2.7773
2.70975
2.64552
2.58465
2.52627
2.46947
2.41258
2.35539
2.30062
2.25198
2.20839
2.16585
2.12166
2.07524
2.02654
1.9774
1.9294
1.885
1.84464
1.80562
1.77063
1.73955
1.71553
1.68825
1.64706
1.60637
1.57651
1.5577
1.58515
1.7082
1.99016
2.26858
2.51283
2.59111
2.58401
2.58753
2.57054
2.54248
2.51569
2.47905
2.44399
2.41935
2.38925
2.35384
2.31875
2.28717
2.2586
2.23372
2.20803
2.18059
2.15465
2.12426
2.09065
2.06274
2.04077
2.0208
2.00104
1.97646
1.94018
1.90018
1.86913
1.84449
1.8341
1.81785
4.06359
4.19439
4.05943
3.89636
3.7575
3.61173
3.45533
3.34027
3.21231
3.27818
3.63098
4.30346
4.62073
4.68951
4.60438
4.46717
4.35139
4.22125
4.08015
3.97324
3.88883
3.80807
3.71938
3.62438
3.52104
3.41329
3.31397
3.22788
3.15
3.07685
3.00685
2.9376
2.86712
2.7955
2.72493
2.65803
2.59498
2.5347
2.47555
2.4162
2.35664
2.29986
2.24862
2.20009
2.15123
2.10331
2.05751
2.0137
1.97033
1.92843
1.88722
1.84527
1.80437
1.76325
1.72351
1.68722
1.66373
1.63891
1.59899
1.56375
1.5436
1.52842
1.56034
1.6801
1.93536
2.21713
2.42261
2.51931
2.54556
2.5448
2.52808
2.48612
2.4392
2.3975
2.36067
2.32992
2.30696
2.28905
2.27388
2.2574
2.2359
2.20576
2.15769
2.11073
2.08769
2.07065
2.05291
2.0343
2.01274
1.98263
1.93859
1.89281
1.86315
1.84975
1.84233
1.82439
3.10989
4.09906
4.13081
3.99773
3.85128
3.67907
3.56055
3.47163
3.66012
4.20167
4.83379
5.07479
4.95376
4.84556
4.73053
4.62755
4.52875
4.40932
4.26102
4.13278
4.0312
3.93792
3.84572
3.75188
3.65196
3.54374
3.43533
3.33826
3.25326
3.17535
3.1004
3.02559
2.94898
2.87039
2.79195
2.71767
2.64972
2.58687
2.52714
2.46887
2.4088
2.34699
2.28885
2.23614
2.18361
2.12971
2.07957
2.03592
1.99464
1.95425
1.91371
1.87269
1.83086
1.78708
1.7452
1.70618
1.67022
1.63371
1.60323
1.58029
1.54956
1.51938
1.50052
1.47644
1.50241
1.64729
1.89505
2.17764
2.34115
2.45623
2.46623
2.45994
2.43886
2.39889
2.34953
2.32165
2.30672
2.29238
2.27409
2.24962
2.21823
2.18161
2.14449
2.112
2.08503
2.06161
2.04172
2.02163
1.99597
1.95835
1.91624
1.89436
1.88144
1.87154
1.85982
1.84189
1.84222
3.40711
4.10058
4.08183
3.94486
3.76179
3.8208
4.23767
4.90256
5.29245
5.47417
5.37164
5.16381
4.98456
4.88668
4.80523
4.69953
4.57121
4.42353
4.28778
4.18093
4.08143
3.98126
3.87942
3.77282
3.65909
3.54361
3.43766
3.3451
3.26132
3.18112
3.10117
3.01938
2.93507
2.85021
2.76918
2.69521
2.62825
2.56687
2.50878
2.44967
2.38865
2.3266
2.26643
2.21064
2.1565
2.10368
2.05652
2.012
1.96857
1.92425
1.87959
1.83671
1.7961
1.75664
1.71642
1.67958
1.64672
1.61923
1.59044
1.5593
1.52634
1.4874
1.45842
1.43685
1.42947
1.46742
1.62807
1.8826
2.15539
2.27298
2.33094
2.35715
2.34217
2.33474
2.33021
2.32098
2.30498
2.28117
2.24935
2.20932
2.16167
2.1173
2.09144
2.07367
2.05684
2.04008
2.01934
1.99041
1.94901
1.90817
1.88627
1.87738
1.87096
1.86886
1.8779
1.42749
2.07817
3.63967
4.03804
4.00303
4.2542
4.96988
5.70711
5.81585
5.74125
5.66589
5.52458
5.35224
5.16706
5.05825
4.97838
4.86818
4.73438
4.58653
4.44139
4.31944
4.20887
4.09849
3.98672
3.87204
3.75228
3.6311
3.51831
3.41878
3.32887
3.2433
3.1586
3.07286
2.98533
2.89688
2.81164
2.73424
2.66565
2.60377
2.54554
2.4919
2.43711
2.37201
2.29901
2.23079
2.17833
2.13588
2.09235
2.04804
2.00345
1.95802
1.91364
1.87171
1.83106
1.79006
1.74872
1.71125
1.67716
1.64457
1.61148
1.57958
1.54707
1.50237
1.45921
1.4311
1.40526
1.38667
1.39048
1.44525
1.59837
1.83606
2.08689
2.2078
2.21189
2.24319
2.27312
2.26917
2.25652
2.23584
2.20198
2.16346
2.12432
2.09246
2.07345
2.05737
2.04283
2.02632
2.00454
1.97547
1.93934
1.90998
1.89129
1.8864
1.89066
1.92265
2.11102
1.40036
1.46452
2.37054
3.46998
4.57104
5.8507
6.24567
6.29646
6.11514
5.91997
5.76165
5.66395
5.52198
5.34385
5.20816
5.11672
5.00638
4.86827
4.71837
4.56718
4.43006
4.30735
4.18852
4.06927
3.94798
3.82309
3.6975
3.57944
3.47387
3.37823
3.28742
3.19741
3.1061
3.01395
2.92327
2.83698
2.75681
2.68259
2.61284
2.54659
2.48314
2.41887
2.35369
2.28757
2.22406
2.16577
2.11193
2.06331
2.01714
1.97306
1.92974
1.88821
1.84784
1.80833
1.76937
1.72961
1.69038
1.65321
1.62244
1.59464
1.56786
1.54035
1.50734
1.47351
1.43711
1.40123
1.36804
1.34642
1.33757
1.34628
1.41166
1.56882
1.80152
1.99163
2.13129
2.20461
2.23066
2.2311
2.21872
2.18526
2.14362
2.09365
2.05816
2.04608
2.03349
2.01835
2.00334
1.98952
1.97104
1.94603
1.92394
1.92759
1.96688
2.08915
2.29631
2.59706
1.40001
1.40146
1.52116
2.68529
5.87173
6.82476
6.53148
6.28624
6.07291
5.89734
5.75131
5.6797
5.61233
5.48646
5.35223
5.24343
5.1207
4.97324
4.81767
4.66249
4.51758
4.3866
4.26152
4.13758
4.01335
3.88761
3.76217
3.64306
3.53424
3.43394
3.33798
3.24313
3.14826
3.05446
2.96367
2.87719
2.79535
2.7178
2.64353
2.57174
2.49868
2.42703
2.36086
2.29806
2.23429
2.17116
2.11418
2.06247
2.01456
1.97073
1.92848
1.88767
1.84679
1.80686
1.76803
1.72904
1.68876
1.64894
1.62049
1.60211
1.58322
1.55879
1.53105
1.49635
1.44942
1.40309
1.36248
1.33597
1.31523
1.30507
1.29907
1.31419
1.38306
1.5511
1.78441
1.95595
2.0978
2.17639
2.17925
2.17284
2.14481
2.08906
2.04901
2.02684
2.00578
1.98926
1.982
1.97861
1.97253
1.98646
2.0438
2.17707
2.39302
2.63331
2.81798
2.91097
1.40001
1.40001
1.4038
2.72987
5.84713
6.38733
6.10662
5.92462
5.81864
5.75093
5.67944
5.61484
5.55415
5.44597
5.31456
5.19084
5.0576
4.89862
4.73246
4.57668
4.42743
4.28933
4.16106
4.03739
3.91519
3.7938
3.67473
3.56139
3.45543
3.35494
3.25721
3.16099
3.06673
2.97599
2.88976
2.80813
2.73091
2.65711
2.58502
2.51268
2.44171
2.37211
2.30444
2.24113
2.18474
2.13455
2.08846
2.04251
1.99554
1.94975
1.90665
1.86775