/*--------------------------------*- C++ -*----------------------------------*\
  =========                 |
  \\      /  F ield         | OpenFOAM: The Open Source CFD Toolbox
   \\    /   O peration     | Website:  https://openfoam.org
    \\  /    A nd           | Version:  7
     \\/     M anipulation  |
\*---------------------------------------------------------------------------*/
FoamFile
{
    version     2.0;
    format      ascii;
    class       volVectorField;
    location    "3.1";
    object      U;
}
// * * * * * * * * * * * * * * * * * * * * * * * * * * * * * * * * * * * * * //

dimensions      [0 1 -1 0 0 0 0];

internalField   nonuniform List<vector> 
4032
(
(3 8.39079e-18 0)
(3 -6.08216e-17 0)
(3 -8.35979e-17 0)
(3 1.1949e-16 0)
(3 1.43005e-16 0)
(3 5.72875e-17 0)
(3 2.35166e-17 0)
(3 4.20713e-17 0)
(3 1.56245e-16 0)
(3 4.9694e-16 0)
(3 7.54631e-16 0)
(2.97244 0.00259845 0)
(1.04157 0.0188006 0)
(0.708219 0.0185406 0)
(0.655687 0.0223831 0)
(0.597756 0.0236923 0)
(0.540246 0.0244813 0)
(0.481929 0.02554 0)
(0.422017 0.0273445 0)
(0.358824 0.0299784 0)
(0.290873 0.03319 0)
(0.216328 0.0372995 0)
(0.134702 0.0400968 0)
(0.04998 0.0449645 0)
(3 7.56992e-17 0)
(3 4.26172e-17 0)
(3 -1.23674e-16 0)
(3 4.01278e-17 0)
(3 4.26915e-16 0)
(3 5.31923e-16 0)
(3 7.33652e-16 0)
(3 9.47566e-16 0)
(3 1.21334e-15 0)
(3 1.74194e-15 0)
(3 1.81544e-15 0)
(2.98269 0.00920637 0)
(1.05576 0.0789638 0)
(0.708964 0.0656168 0)
(0.655883 0.0712167 0)
(0.597927 0.0755627 0)
(0.538883 0.078657 0)
(0.478048 0.0822386 0)
(0.41531 0.0872206 0)
(0.349948 0.0943349 0)
(0.2811 0.103169 0)
(0.20756 0.115292 0)
(0.127871 0.123821 0)
(0.0471972 0.137289 0)
(3 2.32689e-17 0)
(3 1.47084e-16 0)
(3 8.20007e-18 0)
(3 6.16458e-17 0)
(3 1.83783e-16 0)
(3 3.41535e-16 0)
(3 6.55038e-16 0)
(3 6.06982e-16 0)
(3 7.30802e-16 0)
(3 1.38118e-15 0)
(3 2.13229e-15 0)
(3.00119 0.00225726 0)
(1.12108 0.126725 0)
(0.726594 0.106481 0)
(0.672091 0.117312 0)
(0.614113 0.125751 0)
(0.554186 0.132383 0)
(0.491799 0.139788 0)
(0.42654 0.148734 0)
(0.358161 0.160287 0)
(0.286171 0.173614 0)
(0.210597 0.192287 0)
(0.128468 0.20521 0)
(0.0476191 0.225179 0)
(3 -1.65156e-16 0)
(3 -6.48083e-17 0)
(3 -1.7497e-16 0)
(3 -1.63059e-16 0)
(3 3.00787e-17 0)
(3 6.57418e-17 0)
(3 -1.12206e-16 0)
(3 -1.9587e-16 0)
(3 -1.00419e-16 0)
(3 5.3816e-16 0)
(3 8.88031e-16 0)
(3.0001 1.04666e-05 0)
(1.21544 0.175458 0)
(0.735296 0.151761 0)
(0.675232 0.165905 0)
(0.617686 0.178079 0)
(0.557975 0.188206 0)
(0.496387 0.199883 0)
(0.431532 0.213432 0)
(0.3628 0.230335 0)
(0.289396 0.248453 0)
(0.213205 0.273791 0)
(0.12954 0.291436 0)
(0.0469517 0.315823 0)
(3 2.21888e-16 0)
(3 3.00618e-16 0)
(3 -1.18729e-16 0)
(3 -5.75833e-17 0)
(3 2.59717e-16 0)
(3 7.23422e-16 0)
(3 9.23326e-16 0)
(3 1.26585e-15 0)
(3 7.08491e-16 0)
(3 1.81075e-16 0)
(3 -1.84556e-16 0)
(3 -1.22216e-08 0)
(1.36414 0.226844 0)
(0.750478 0.201672 0)
(0.680339 0.214443 0)
(0.62568 0.228891 0)
(0.56916 0.241809 0)
(0.511769 0.257728 0)
(0.450948 0.276502 0)
(0.386047 0.299965 0)
(0.314527 0.323335 0)
(0.238911 0.356108 0)
(0.149086 0.382001 0)
(0.0568468 0.414272 0)
(3 2.85688e-16 0)
(3 1.63268e-16 0)
(3 3.07927e-16 0)
(3 4.85853e-16 0)
(3 3.67715e-16 0)
(3 7.35357e-16 0)
(3 1.84918e-15 0)
(3 1.81675e-15 0)
(3 8.85275e-16 0)
(3 -8.40786e-16 0)
(3 -8.38334e-16 0)
(3 -1.29051e-09 0)
(1.58588 0.276904 0)
(0.775503 0.260583 0)
(0.684347 0.263289 0)
(0.630384 0.277504 0)
(0.576776 0.29196 0)
(0.525109 0.311744 0)
(0.470711 0.336 0)
(0.411621 0.368218 0)
(0.339857 0.401869 0)
(0.26027 0.449205 0)
(0.162511 0.492815 0)
(0.0557862 0.533992 0)
(3 -2.40783e-16 0)
(3 -7.9798e-16 0)
(3 -3.00141e-16 0)
(3 7.98484e-17 0)
(3 3.00286e-17 0)
(3 1.29044e-16 0)
(3 3.22168e-16 0)
(3 6.4451e-16 0)
(3 8.33656e-16 0)
(3 1.18676e-16 0)
(3 -2.37324e-16 0)
(3 -1.91335e-10 0)
(1.9018 0.328243 0)
(0.81433 0.335786 0)
(0.691475 0.322483 0)
(0.637207 0.330461 0)
(0.585575 0.342852 0)
(0.538797 0.363971 0)
(0.490631 0.392458 0)
(0.442264 0.434499 0)
(0.381209 0.48205 0)
(0.315936 0.542411 0)
(0.22756 0.604591 0)
(0.0990102 0.674523 0)
(3 -1.36612e-16 0)
(3 -2.31131e-16 0)
(3 -2.43618e-16 0)
(3 -5.71369e-17 0)
(3 2.23766e-16 0)
(3 2.05084e-16 0)
(3 -2.9104e-16 0)
(3 -1.93983e-16 0)
(3 5.6488e-16 0)
(3 1.00199e-15 0)
(3 1.69917e-15 0)
(3 -3.37601e-11 0)
(2.36509 0.338726 0)
(0.901215 0.425056 0)
(0.744762 0.378662 0)
(0.690717 0.384762 0)
(0.633622 0.393835 0)
(0.583331 0.414264 0)
(0.534907 0.445039 0)
(0.492131 0.492238 0)
(0.443301 0.550054 0)
(0.383937 0.636995 0)
(0.26922 0.764148 0)
(0.149207 0.934178 0)
(3 2.05525e-17 0)
(3 3.20548e-16 0)
(3 2.12901e-16 0)
(3 -2.89916e-16 0)
(3 -6.79439e-16 0)
(3 -7.93794e-16 0)
(3 -4.69781e-16 0)
(3 -6.85474e-16 0)
(3 -6.19611e-16 0)
(3 1.04355e-15 0)
(3 1.67025e-15 0)
(3 -2.16433e-12 0)
(2.93337 0.163285 0)
(1.08483 0.468633 0)
(0.841862 0.409155 0)
(0.787095 0.428379 0)
(0.719036 0.444625 0)
(0.658765 0.465283 0)
(0.605974 0.494871 0)
(0.562254 0.543634 0)
(0.522002 0.616732 0)
(0.487197 0.74293 0)
(0.457356 0.923521 0)
(0.573342 1.20676 0)
(3 -1.44035e-16 0)
(3 -7.12082e-17 0)
(3 9.74492e-17 0)
(3 1.03035e-17 0)
(3 -4.93321e-16 0)
(3 -7.144e-16 0)
(3 -1.73123e-16 0)
(3 1.15031e-16 0)
(3 4.39818e-16 0)
(3 4.67113e-16 0)
(3 4.37688e-16 0)
(3 -3.97722e-14 0)
(3.04085 0.00936568 0)
(1.29007 0.444335 0)
(0.876643 0.468451 0)
(0.839146 0.500961 0)
(0.781113 0.512896 0)
(0.72713 0.529921 0)
(0.679684 0.555587 0)
(0.638985 0.600941 0)
(0.617949 0.678926 0)
(0.615752 0.809938 0)
(0.678418 0.960503 0)
(0.96355 1.13455 0)
(3 2.39528e-16 0)
(3 8.77555e-17 0)
(3 -1.91701e-17 0)
(3 5.2344e-16 0)
(3 7.92036e-16 0)
(3 7.62118e-16 0)
(3 8.54214e-16 0)
(3 1.15657e-15 0)
(3 1.05142e-15 0)
(3 3.42503e-16 0)
(3 -2.33765e-16 0)
(3 -1.06553e-15 0)
(3.00125 -9.40939e-06 0)
(1.59101 0.467061 0)
(0.868202 0.513823 0)
(0.836006 0.543338 0)
(0.808085 0.566731 0)
(0.779838 0.586283 0)
(0.750899 0.610542 0)
(0.724015 0.648242 0)
(0.722477 0.71766 0)
(0.747338 0.830292 0)
(0.869 0.956919 0)
(1.18093 1.06774 0)
(3 1.43416e-16 0)
(3 3.93351e-16 0)
(3 5.75014e-16 0)
(3 5.05881e-16 0)
(3 8.77651e-16 0)
(3 8.47168e-16 0)
(3 6.80195e-16 0)
(3 3.60774e-16 0)
(3 2.56154e-17 0)
(3 -6.18825e-16 0)
(3 -6.23022e-16 0)
(3 -4.87231e-16 0)
(3 -1.3714e-07 0)
(2.24166 0.475361 0)
(0.958121 0.587437 0)
(0.863184 0.554734 0)
(0.857956 0.583875 0)
(0.841643 0.617411 0)
(0.825329 0.651357 0)
(0.813485 0.688242 0)
(0.82325 0.748024 0)
(0.870134 0.832548 0)
(1.00905 0.93038 0)
(1.26956 0.998066 0)
(3 -2.42272e-16 0)
(3 -2.96181e-17 0)
(3 5.65584e-16 0)
(3 8.94968e-16 0)
(3 1.02614e-15 0)
(3 7.75627e-16 0)
(3 -1.27066e-16 0)
(3 4.49928e-17 0)
(3 -1.12165e-17 0)
(3 -3.62759e-16 0)
(3 -3.83237e-16 0)
(3 -6.48272e-16 0)
(3 -1.34126e-07 0)
(3.03451 0.150396 0)
(1.21231 0.605008 0)
(0.942024 0.564433 0)
(0.931357 0.613473 0)
(0.913028 0.647824 0)
(0.900899 0.683022 0)
(0.900738 0.719669 0)
(0.916482 0.76968 0)
(0.977381 0.835223 0)
(1.11444 0.90677 0)
(1.32244 0.950569 0)
(3 -1.43467e-16 0)
(3 -1.76793e-16 0)
(3 -2.6295e-16 0)
(3 8.48711e-17 0)
(3 -7.50825e-17 0)
(3 -7.06553e-17 0)
(3 -2.72269e-16 0)
(3 1.31614e-16 0)
(3 -1.19584e-16 0)
(3 -5.89023e-16 0)
(3 -1.07864e-15 0)
(3 -5.70433e-16 0)
(3 -2.66529e-08 0)
(3.03512 0.00308087 0)
(1.48425 0.5903 0)
(0.971109 0.649815 0)
(0.943301 0.660192 0)
(0.932486 0.683924 0)
(0.944288 0.715905 0)
(0.963636 0.75202 0)
(0.997237 0.788781 0)
(1.06475 0.832684 0)
(1.18554 0.876136 0)
(1.34831 0.897783 0)
(3 1.13541e-16 0)
(3 -1.96817e-17 0)
(3 -7.69064e-16 0)
(3 -9.7613e-16 0)
(3 -1.33821e-15 0)
(3 -1.18465e-15 0)
(3 -5.55684e-16 0)
(3 -7.57613e-16 0)
(3 -1.22858e-15 0)
(3 -1.11167e-15 0)
(3 -1.3879e-15 0)
(3 7.98542e-17 0)
(3 -2.11147e-09 0)
(3.00061 -8.92305e-06 0)
(2.18871 0.566247 0)
(1.05768 0.72464 0)
(0.985289 0.684455 0)
(0.972133 0.695931 0)
(0.987788 0.72083 0)
(1.01507 0.756673 0)
(1.06172 0.796182 0)
(1.13587 0.833985 0)
(1.24111 0.864684 0)
(1.37382 0.875977 0)
(3 3.08626e-16 0)
(3 -1.96376e-16 0)
(3 -2.76826e-16 0)
(3 -5.55541e-16 0)
(3 -8.16753e-16 0)
(3 -8.85936e-16 0)
(3 -4.86539e-16 0)
(3 -6.82455e-16 0)
(3 -5.19642e-16 0)
(3 -4.55973e-17 0)
(3 9.6694e-17 0)
(3 8.12014e-16 0)
(3 -1.10069e-11 0)
(3.00004 -1.65181e-05 0)
(3.05394 0.136888 0)
(1.36723 0.70966 0)
(1.0765 0.70714 0)
(1.05646 0.708452 0)
(1.05297 0.732658 0)
(1.07115 0.762672 0)
(1.11419 0.792471 0)
(1.18419 0.8229 0)
(1.27535 0.844512 0)
(1.38965 0.851348 0)
(3 -8.25787e-17 0)
(3 -1.51609e-18 0)
(3 2.8365e-16 0)
(3 -6.07754e-17 0)
(3 -1.41279e-16 0)
(3 1.00699e-16 0)
(3 1.41157e-16 0)
(3 -2.47753e-16 0)
(3 -2.62242e-16 0)
(3 -1.84601e-16 0)
(3 2.2045e-16 0)
(3 7.05822e-16 0)
(3 -1.41193e-14 0)
(3 -3.59809e-06 0)
(3.02404 0.00167878 0)
(1.76617 0.67277 0)
(1.10661 0.775192 0)
(1.08914 0.771261 0)
(1.1021 0.77324 0)
(1.12192 0.786905 0)
(1.16228 0.805043 0)
(1.22667 0.82487 0)
(1.30615 0.839221 0)
(1.40488 0.844205 0)
(3 -1.26606e-16 0)
(3 4.44851e-16 0)
(3 8.46372e-16 0)
(3 8.53529e-16 0)
(3 1.02535e-15 0)
(3 1.35719e-15 0)
(3 7.96352e-16 0)
(3 5.80328e-16 0)
(3 -1.04917e-16 0)
(3 -2.1636e-17 0)
(3 3.3773e-16 0)
(3 1.1351e-15 0)
(3 1.40537e-15 0)
(3 -2.90023e-07 0)
(3.00027 1.17545e-05 0)
(2.75429 0.367371 0)
(1.27879 0.790979 0)
(1.14098 0.773016 0)
(1.16405 0.773534 0)
(1.18171 0.790665 0)
(1.21513 0.806098 0)
(1.26982 0.81969 0)
(1.33761 0.829938 0)
(1.42186 0.833266 0)
(3 -1.42416e-17 0)
(3 -4.59956e-17 0)
(3 -1.64138e-16 0)
(3 2.49967e-16 0)
(3 3.18637e-16 0)
(3 1.47577e-16 0)
(3 -1.1446e-16 0)
(3 2.0475e-16 0)
(3 4.98617e-16 0)
(3 5.22902e-16 0)
(3 4.4842e-16 0)
(3 6.00685e-16 0)
(3 5.08745e-16 0)
(3 -1.59355e-09 0)
(3.00002 -8.06353e-06 0)
(3.05889 0.02077 0)
(1.65275 0.739506 0)
(1.1788 0.813555 0)
(1.19933 0.812661 0)
(1.21609 0.822767 0)
(1.25212 0.831222 0)
(1.3013 0.838565 0)
(1.36162 0.842524 0)
(1.43524 0.839802 0)
(3 -1.27047e-16 0)
(3 -4.72196e-16 0)
(3 -7.88152e-16 0)
(3 -5.6709e-16 0)
(3 -4.66089e-16 0)
(3 -8.52458e-16 0)
(3 -9.33918e-16 0)
(3 -3.95416e-16 0)
(3 2.89494e-16 0)
(3 8.35456e-17 0)
(3 7.32356e-17 0)
(3 -1.78708e-16 0)
(3 -4.04159e-16 0)
(3 -2.40477e-12 0)
(3 -1.74282e-06 0)
(3.002 0.000362372 0)
(2.56215 0.50104 0)
(1.31106 0.855085 0)
(1.23174 0.83602 0)
(1.25696 0.83086 0)
(1.2908 0.832448 0)
(1.33573 0.834932 0)
(1.38999 0.834802 0)
(1.45518 0.830388 0)
(3 3.45707e-18 0)
(3 -1.45345e-16 0)
(3 9.45352e-17 0)
(3 7.33148e-17 0)
(3 5.46732e-17 0)
(3 -1.58236e-16 0)
(3 -1.70627e-16 0)
(3 -3.06752e-16 0)
(3 -5.60271e-16 0)
(3 -6.78893e-16 0)
(3 -3.18543e-16 0)
(3 -4.09253e-16 0)
(3 -1.1753e-16 0)
(3 -2.99331e-16 0)
(3 -1.43193e-07 0)
(3 5.23801e-07 0)
(3.05871 0.0473458 0)
(1.72403 0.796697 0)
(1.2751 0.850648 0)
(1.30044 0.847742 0)
(1.3277 0.848685 0)
(1.36583 0.848528 0)
(1.41357 0.845929 0)
(1.46985 0.841836 0)
(3 1.30761e-16 0)
(3 9.53347e-17 0)
(3 9.44742e-17 0)
(3 3.5596e-16 0)
(3 2.77791e-16 0)
(3 5.44358e-16 0)
(3 9.60886e-17 0)
(3 -7.01769e-16 0)
(3 -1.00545e-15 0)
(3 -6.90138e-16 0)
(3 -4.98859e-16 0)
(3 -9.93365e-16 0)
(3 -9.12957e-16 0)
(3 -3.32124e-16 0)
(3 -8.84188e-10 0)
(3 -8.51769e-08 0)
(3.00365 0.00139726 0)
(2.66201 0.490737 0)
(1.41977 0.900999 0)
(1.33109 0.872476 0)
(1.36556 0.865291 0)
(1.39859 0.859687 0)
(1.44066 0.853758 0)
(1.48974 0.847565 0)
(3 2.90121e-17 0)
(3 1.67866e-16 0)
(3 2.16913e-16 0)
(3 2.14678e-16 0)
(3 2.77841e-17 0)
(3 -2.38514e-16 0)
(3 -5.18665e-16 0)
(3 -5.07327e-16 0)
(3 -5.9328e-16 0)
(3 -2.59785e-16 0)
(3 -4.1984e-16 0)
(3 1.92717e-16 0)
(3 3.22161e-16 0)
(3 2.43833e-16 0)
(3 -1.75045e-12 0)
(3 -1.7726e-08 0)
(3.00001 6.79769e-06 0)
(3.0501 0.0384712 0)
(1.88334 0.794729 0)
(1.37916 0.889884 0)
(1.40695 0.881341 0)
(1.43592 0.874901 0)
(1.47198 0.868059 0)
(1.51282 0.860033 0)
(3 -7.44506e-17 0)
(3 -7.72985e-17 0)
(3 -1.0175e-17 0)
(3 -3.90794e-16 0)
(3 -3.75867e-16 0)
(3 -6.64765e-16 0)
(3 -8.76008e-17 0)
(3 4.0664e-16 0)
(3 6.63472e-16 0)
(3 5.39396e-16 0)
(3 6.45256e-17 0)
(3 6.17261e-16 0)
(3 6.21768e-16 0)
(3 -2.57021e-16 0)
(3 -7.2284e-16 0)
(3 -1.63601e-09 0)
(3 2.71036e-10 0)
(3.00204 0.00135643 0)
(2.77597 0.374919 0)
(1.59897 0.914727 0)
(1.42189 0.903277 0)
(1.46286 0.897867 0)
(1.49462 0.890201 0)
(1.53288 0.876703 0)
(3 -4.12337e-17 0)
(3 -3.29961e-16 0)
(3 -6.54996e-16 0)
(3 -7.47664e-16 0)
(3 -5.80528e-16 0)
(3 -1.17747e-16 0)
(3 2.78564e-16 0)
(3 3.50372e-16 0)
(3 7.86767e-16 0)
(3 8.78165e-16 0)
(3 1.05601e-15 0)
(3 -2.50503e-16 0)
(3 -9.29608e-16 0)
(3 -1.04427e-15 0)
(3 -6.11857e-16 0)
(3 -4.43573e-11 0)
(3 -5.26206e-11 0)
(3 5.59616e-06 0)
(3.02184 0.024342 0)
(2.20207 0.739174 0)
(1.49045 0.924706 0)
(1.48927 0.916418 0)
(1.52194 0.902077 0)
(1.55656 0.886528 0)
(3 -4.31962e-17 0)
(3 -1.15215e-17 0)
(3 -2.18473e-17 0)
(3 8.44865e-17 0)
(3 2.8948e-16 0)
(3 3.32412e-16 0)
(3 -3.7421e-16 0)
(3 -9.16162e-16 0)
(3 -7.59605e-16 0)
(3 6.15193e-16 0)
(3 7.01586e-16 0)
(3 -4.04059e-17 0)
(3 -6.99489e-16 0)
(3 -7.99706e-16 0)
(3 -4.31641e-16 0)
(3 -2.14876e-13 0)
(3 -1.00449e-11 0)
(3 1.85108e-09 0)
(3.00042 0.000852238 0)
(2.94914 0.192972 0)
(1.84061 0.867309 0)
(1.51878 0.930312 0)
(1.55356 0.917504 0)
(1.5852 0.902771 0)
(3 -4.81644e-17 0)
(3 3.44799e-16 0)
(3 5.50549e-16 0)
(3 4.48485e-16 0)
(3 4.24391e-16 0)
(3 1.44839e-16 0)
(3 -4.97921e-16 0)
(3 -2.61424e-16 0)
(3 -2.20872e-17 0)
(3 2.93309e-16 0)
(3 5.54165e-16 0)
(3 2.93202e-16 0)
(3 1.39748e-16 0)
(3 3.9678e-16 0)
(3 3.50341e-16 0)
(3 4.58402e-16 0)
(3 -1.10439e-12 0)
(3 -9.22786e-13 0)
(3 2.38263e-06 0)
(3.00565 0.0110926 0)
(2.59519 0.513065 0)
(1.68756 0.948351 0)
(1.56114 0.939092 0)
(1.59846 0.927766 0)
(3 7.25458e-17 0)
(3 1.92697e-16 0)
(3 3.05684e-16 0)
(3 -6.26367e-17 0)
(3 -5.07945e-16 0)
(3 -1.4958e-16 0)
(3 1.68974e-16 0)
(3 6.13045e-16 0)
(3 9.9362e-16 0)
(3 3.61302e-17 0)
(3 -3.16336e-16 0)
(3 6.22318e-17 0)
(3 3.99023e-16 0)
(3 7.6837e-16 0)
(3 4.1361e-16 0)
(3 5.52858e-16 0)
(3 -2.40354e-14 0)
(3 -3.02267e-13 0)
(3 9.97412e-10 0)
(3.00001 0.000188406 0)
(3.00219 0.058515 0)
(2.22516 0.751253 0)
(1.63042 0.951317 0)
(1.61963 0.948605 0)
(3 3.19831e-16 0)
(3 2.54864e-16 0)
(3 1.25991e-16 0)
(3 1.54732e-16 0)
(3 3.22318e-16 0)
(3 6.03967e-16 0)
(3 9.21223e-16 0)
(3 5.82164e-16 0)
(3 1.97907e-17 0)
(3 -4.62605e-16 0)
(3 -7.1202e-16 0)
(3 -9.72782e-16 0)
(3 -1.31025e-15 0)
(3 -1.37916e-15 0)
(3 -7.82286e-16 0)
(3 -2.44547e-16 0)
(3 -1.31234e-16 0)
(3 -4.42298e-14 0)
(3 1.65252e-13 0)
(3 2.57541e-07 0)
(3.00035 0.00263637 0)
(2.90415 0.219931 0)
(1.97679 0.85417 0)
(1.66657 0.955897 0)
(3 -3.41361e-17 0)
(3 -6.56912e-17 0)
(3 -1.15603e-16 0)
(3 -9.40035e-17 0)
(3 1.35356e-17 0)
(3 -2.0278e-16 0)
(3 -2.68055e-16 0)
(3 -4.37299e-16 0)
(3 -1.61369e-15 0)
(3 -1.51996e-15 0)
(3 -1.30599e-15 0)
(3 -8.091e-16 0)
(3 -6.67651e-16 0)
(3 -8.44764e-16 0)
(3 -7.2029e-16 0)
(3 -7.66068e-16 0)
(3 -7.09154e-16 0)
(3 -4.58888e-15 0)
(3 -4.48348e-15 0)
(3 1.34406e-10 0)
(3 1.31037e-05 0)
(3.0007 0.0148878 0)
(2.66683 0.439071 0)
(1.86988 0.915992 0)
(3 -4.62372e-17 0)
(3 -3.94278e-16 0)
(3 -3.13793e-16 0)
(3 -6.33259e-16 0)
(3 -1.03754e-15 0)
(3 -1.07526e-15 0)
(3 -1.14748e-15 0)
(3 -1.21053e-15 0)
(3 -8.93248e-16 0)
(3 -9.00774e-16 0)
(3 -8.14801e-16 0)
(3 -3.87888e-16 0)
(3 4.95867e-16 0)
(3 3.59348e-16 0)
(3 -7.37433e-16 0)
(3 -9.94689e-16 0)
(3 -1.14885e-15 0)
(3 -1.62633e-15 0)
(3 -3.24758e-15 0)
(3 1.48456e-14 0)
(3 1.07218e-08 0)
(2.99996 0.000258972 0)
(2.99138 0.0459324 0)
(2.42559 0.621446 0)
(3 6.66477e-17 0)
(3 4.69968e-18 0)
(3 -1.90459e-16 0)
(3 1.63622e-16 0)
(3 -1.46415e-16 0)
(3 -3.92737e-16 0)
(3 -1.73587e-16 0)
(3 -2.15528e-16 0)
(3 -1.01782e-16 0)
(3 1.46997e-16 0)
(3 -1.30594e-17 0)
(3 -9.921e-17 0)
(3 3.27503e-19 0)
(3 4.44658e-18 0)
(3 -2.47554e-16 0)
(3 -2.24565e-16 0)
(3 -3.75548e-16 0)
(3 -4.98534e-16 0)
(3 -1.17275e-15 0)
(3 -6.77954e-16 0)
(3 3.93969e-12 0)
(3 4.32415e-07 0)
(2.99981 0.00175173 0)
(2.94714 0.116305 0)
(3 3.04187e-18 0)
(3 -7.93179e-17 0)
(3 1.2717e-17 0)
(3 4.14879e-16 0)
(3 4.88696e-16 0)
(3 9.34753e-17 0)
(3 -5.09527e-16 0)
(3 -1.00271e-15 0)
(3 -1.19147e-15 0)
(3 -5.58024e-16 0)
(3 -5.99547e-16 0)
(3 -5.1518e-16 0)
(3 -3.01527e-16 0)
(3 -3.24835e-16 0)
(3 -7.18244e-17 0)
(3 2.41574e-16 0)
(3 5.1134e-16 0)
(3 6.7603e-16 0)
(3 7.99849e-17 0)
(3 -7.47033e-16 0)
(3 -7.86063e-16 0)
(3 3.33019e-10 0)
(3 6.3928e-06 0)
(2.99899 0.00649005 0)
(3 -9.55465e-17 0)
(3 -2.69405e-16 0)
(3 1.15385e-16 0)
(3 1.75014e-16 0)
(3 4.44598e-16 0)
(3 -1.48264e-16 0)
(3 -1.12916e-15 0)
(3 -1.25156e-15 0)
(3 -2.84737e-16 0)
(3 -3.35926e-16 0)
(3 -6.22066e-17 0)
(3 7.39824e-17 0)
(3 -4.71969e-16 0)
(3 -8.81589e-16 0)
(3 -6.51321e-16 0)
(3 -1.42436e-16 0)
(3 -1.33639e-16 0)
(3 3.20069e-17 0)
(3 5.86357e-16 0)
(3 3.20838e-16 0)
(3 -4.45468e-16 0)
(3 3.83058e-14 0)
(3 6.75805e-09 0)
(2.99998 5.4924e-05 0)
(3 -4.60787e-17 0)
(3 -1.2649e-16 0)
(3 -7.05501e-17 0)
(3 9.70652e-18 0)
(3 -6.14713e-16 0)
(3 -5.81609e-16 0)
(3 -3.84449e-16 0)
(3 8.15163e-16 0)
(3 1.56689e-15 0)
(3 1.59356e-15 0)
(3 1.70477e-15 0)
(3 1.3785e-15 0)
(3 3.12838e-16 0)
(3 -1.76993e-16 0)
(3 1.33602e-17 0)
(3 -1.30973e-16 0)
(3 -4.46166e-16 0)
(3 -7.9647e-16 0)
(3 2.30365e-16 0)
(3 3.30428e-16 0)
(3 1.58821e-16 0)
(3 1.1811e-15 0)
(3 1.59055e-12 0)
(3 9.15126e-08 0)
(3 4.3633e-17 0)
(3 -1.58607e-18 0)
(3 3.80806e-17 0)
(3 -2.1808e-17 0)
(3 3.85285e-18 0)
(3 9.61938e-16 0)
(3 1.54943e-15 0)
(3 1.51227e-15 0)
(3 1.05831e-15 0)
(3 1.26444e-15 0)
(3 1.04676e-15 0)
(3 5.38519e-16 0)
(3 7.36165e-16 0)
(3 8.9992e-16 0)
(3 3.30037e-16 0)
(3 9.15373e-17 0)
(3 -3.50778e-16 0)
(3 -1.19639e-15 0)
(3 -1.39796e-15 0)
(3 -1.21855e-15 0)
(3 -7.32993e-16 0)
(3 -3.24664e-16 0)
(3 3.98634e-16 0)
(3 4.73521e-11 0)
(3 1.38683e-16 0)
(3 4.72987e-16 0)
(3 2.88255e-16 0)
(3 2.29898e-16 0)
(3 8.38777e-16 0)
(3 1.69895e-15 0)
(3 2.19931e-15 0)
(3 2.30777e-15 0)
(3 1.83959e-15 0)
(3 1.3344e-15 0)
(3 4.75878e-16 0)
(3 -1.97564e-16 0)
(3 -4.40292e-17 0)
(3 4.5019e-16 0)
(3 2.73401e-16 0)
(3 -4.3525e-16 0)
(3 -1.99456e-15 0)
(3 -2.00099e-15 0)
(3 -1.65607e-15 0)
(3 -7.28005e-16 0)
(3 6.60457e-17 0)
(3 1.51265e-17 0)
(3 -2.44642e-16 0)
(3 2.26145e-15 0)
(3 2.73311e-16 0)
(3 4.02243e-16 0)
(3 1.89367e-17 0)
(3 -1.77879e-16 0)
(3 1.10023e-16 0)
(3 2.28121e-16 0)
(3 8.04205e-16 0)
(3 1.73389e-15 0)
(3 1.23772e-15 0)
(3 3.72892e-16 0)
(3 -2.75245e-16 0)
(3 -3.99761e-16 0)
(3 9.39328e-17 0)
(3 9.91071e-17 0)
(3 1.23694e-17 0)
(3 -4.74223e-16 0)
(3 -9.42138e-16 0)
(3 -1.69104e-15 0)
(3 -1.40775e-15 0)
(3 -1.19738e-15 0)
(3 -9.65956e-16 0)
(3 -8.6195e-16 0)
(3 -1.44871e-15 0)
(3 -1.31742e-15 0)
(3 -1.68446e-16 0)
(3 -7.37089e-16 0)
(3 -6.4847e-16 0)
(3 -3.48796e-17 0)
(3 -3.99618e-16 0)
(3 -8.4991e-16 0)
(3 -5.66444e-16 0)
(3 -4.95727e-16 0)
(3 -4.62919e-16 0)
(3 -2.30815e-16 0)
(3 -1.71416e-16 0)
(3 -5.7374e-16 0)
(3 -5.88706e-16 0)
(3 2.87181e-17 0)
(3 3.05414e-16 0)
(3 -1.42149e-16 0)
(3 -8.41915e-18 0)
(3 2.88505e-16 0)
(3 -1.03009e-15 0)
(3 -1.32946e-15 0)
(3 -1.1093e-15 0)
(3 -7.22907e-16 0)
(3 -6.07168e-16 0)
(3 -7.70888e-16 0)
(3 -3.62719e-16 0)
(3 -6.08595e-16 0)
(3 -2.87336e-16 0)
(3 1.52638e-16 0)
(3 -3.67721e-16 0)
(3 -5.68804e-16 0)
(3 -6.3012e-16 0)
(3 -9.41365e-16 0)
(3 -7.48286e-16 0)
(3 -2.0898e-16 0)
(3 1.95636e-16 0)
(3 -3.61317e-16 0)
(3 -5.27178e-16 0)
(3 -3.87121e-16 0)
(3 7.66318e-18 0)
(3 -3.11336e-16 0)
(3 -2.34568e-16 0)
(3 2.74941e-16 0)
(3 -3.3945e-16 0)
(3 -3.20224e-16 0)
(3 -2.17047e-16 0)
(3 -3.11483e-17 0)
(3 4.79897e-16 0)
(3 1.61822e-16 0)
(1.53583 1.23879 0)
(1.87522 1.50723 0)
(2.15913 1.27182 0)
(2.45427 0.784915 0)
(2.73251 0.374628 0)
(2.6631 0.00992407 0)
(2.59737 -0.157061 0)
(2.45238 -0.377835 0)
(2.41512 -0.48924 0)
(2.44013 -0.343251 0)
(2.44415 -0.203048 0)
(2.42464 -0.158205 0)
(2.40681 -0.159048 0)
(2.40186 -0.164979 0)
(2.41814 -0.12626 0)
(2.41166 -0.0970413 0)
(2.39723 -0.0648885 0)
(2.36771 -0.0253885 0)
(2.36008 -0.0239332 0)
(2.36854 -0.0209395 0)
(2.38336 -0.00947202 0)
(2.40366 -0.00354389 0)
(2.41024 -0.00689482 0)
(2.40855 -0.00749817 0)
(2.40383 -0.00766535 0)
(2.39166 -0.00906192 0)
(2.38757 -0.00993658 0)
(2.38277 -0.0122549 0)
(2.38157 -0.0114282 0)
(2.3843 -0.00967403 0)
(2.38936 -0.00142061 0)
(2.4061 -0.000636753 0)
(1.19248 0.0230698 0)
(0.772701 -0.00415548 0)
(0.791056 -0.0251457 0)
(0.843963 -0.0427968 0)
(0.895544 -0.0528093 0)
(0.948543 -0.053349 0)
(1.00199 -0.0504024 0)
(1.05805 -0.0454022 0)
(1.11367 -0.0426869 0)
(1.16631 -0.0393219 0)
(1.21393 -0.0340933 0)
(1.2561 -0.0279619 0)
(1.29181 -0.0211659 0)
(1.32348 -0.0161324 0)
(1.35512 -0.0140673 0)
(1.3895 -0.0131655 0)
(1.42744 -0.0128475 0)
(1.46844 -0.0127263 0)
(1.50708 -0.0115386 0)
(1.53503 -0.0105537 0)
(1.55723 -0.00845796 0)
(1.57633 -0.0029461 0)
(1.59551 0.00227004 0)
(1.61711 0.0041511 0)
(1.6448 0.0037946 0)
(1.67789 0.00036258 0)
(1.70428 -0.00409369 0)
(1.7273 -0.00404346 0)
(1.74757 -0.0021348 0)
(1.76187 0.00213284 0)
(1.77398 0.00684569 0)
(1.78972 0.00886724 0)
(1.80771 0.00923678 0)
(1.83131 0.0087236 0)
(1.86009 0.00608511 0)
(1.88426 0.00082007 0)
(1.90639 -0.00244186 0)
(1.9282 -0.00321012 0)
(1.94246 -0.00107612 0)
(1.94707 0.00321434 0)
(1.95522 0.00709931 0)
(1.97014 0.00818336 0)
(1.98708 0.00837275 0)
(2.00632 0.00800416 0)
(2.02651 0.0058455 0)
(2.04404 0.00468434 0)
(2.06189 0.00471357 0)
(2.0732 0.00553465 0)
(2.0746 0.007677 0)
(2.08243 0.00945482 0)
(2.09904 0.0100999 0)
(2.11574 0.0106996 0)
(2.1358 0.0109941 0)
(2.16016 0.00774972 0)
(2.17769 0.00399505 0)
(2.19698 0.00252637 0)
(2.21314 0.00118208 0)
(2.21707 0.00263538 0)
(2.21089 0.00692948 0)
(2.21454 0.0103473 0)
(2.22901 0.0114927 0)
(2.24524 0.0120979 0)
(2.25957 0.0124549 0)
(2.28557 0.0104783 0)
(1.77919 1.05938 0)
(2.25982 0.854565 0)
(2.49294 0.569417 0)
(2.68851 0.0224281 0)
(2.71761 -0.303765 0)
(2.73423 -0.396502 0)
(2.72043 -0.559522 0)
(2.74248 -0.685518 0)
(2.76674 -0.679533 0)
(2.65912 -0.562495 0)
(2.54506 -0.372132 0)
(2.5246 -0.233404 0)
(2.51943 -0.185051 0)
(2.50886 -0.152706 0)
(2.49278 -0.120023 0)
(2.46369 -0.0738374 0)
(2.43336 -0.0373361 0)
(2.42636 0.00476102 0)
(2.42018 0.00304894 0)
(2.41572 7.88687e-05 0)
(2.41701 0.0159928 0)
(2.42495 0.0191065 0)
(2.42868 -0.00439334 0)
(2.43099 -0.0147776 0)
(2.43245 -0.0175008 0)
(2.42313 -0.0178231 0)
(2.41631 -0.0172694 0)
(2.4123 -0.0207313 0)
(2.41174 -0.0216733 0)
(2.41584 -0.0120981 0)
(2.42066 0.00644655 0)
(2.41665 -0.0217477 0)
(1.46606 0.051111 0)
(0.922135 -0.0181859 0)
(0.944578 -0.0823424 0)
(1.01583 -0.0940035 0)
(1.0599 -0.0846649 0)
(1.09196 -0.0655567 0)
(1.12416 -0.0533714 0)
(1.16092 -0.0374855 0)
(1.19674 -0.0285814 0)
(1.23221 -0.0321812 0)
(1.2727 -0.0396027 0)
(1.31468 -0.0428481 0)
(1.35272 -0.0371093 0)
(1.38208 -0.0244869 0)
(1.40863 -0.0105398 0)
(1.43453 0.00147458 0)
(1.46032 0.00672521 0)
(1.48873 0.00355503 0)
(1.52336 -0.00773793 0)
(1.5581 -0.0188364 0)
(1.58354 -0.0218591 0)
(1.60434 -0.0184873 0)
(1.62405 -0.00652895 0)
(1.64284 0.00787749 0)
(1.66356 0.0164813 0)
(1.68544 0.0150774 0)
(1.71024 0.00572182 0)
(1.73588 -0.00589242 0)
(1.75689 -0.0103668 0)
(1.77651 -0.0089013 0)
(1.7932 0.00111495 0)
(1.80707 0.0150777 0)
(1.82297 0.0250819 0)
(1.84095 0.0285737 0)
(1.86209 0.0247634 0)
(1.8852 0.016292 0)
(1.9073 0.00723714 0)
(1.9269 -0.00353461 0)
(1.94449 -0.0110739 0)
(1.96109 -0.00767717 0)
(1.97443 0.00554783 0)
(1.98322 0.0205744 0)
(1.99326 0.0279818 0)
(2.00888 0.0280905 0)
(2.0272 0.0242043 0)
(2.04696 0.0173014 0)
(2.0645 0.00962712 0)
(2.07936 0.003953 0)
(2.08807 0.00806582 0)
(2.0938 0.0202459 0)
(2.10339 0.0290934 0)
(2.11837 0.0316381 0)
(2.13458 0.0318925 0)
(2.15552 0.0271873 0)
(2.17603 0.0188702 0)
(2.19382 0.0108647 0)
(2.20947 0.0019815 0)
(2.22085 -0.00477176 0)
(2.22641 0.00129108 0)
(2.22937 0.0171033 0)
(2.234 0.0307302 0)
(2.24756 0.0357678 0)
(2.26029 0.0371139 0)
(2.2831 0.0337105 0)
(1.64356 1.0714 0)
(2.10004 0.820055 0)
(2.3666 0.579725 0)
(2.43803 0.461704 0)
(2.5816 0.148429 0)
(2.64712 0.0302819 0)
(2.71282 -0.111393 0)
(2.76929 -0.326025 0)
(2.76463 -0.380218 0)
(2.74856 -0.403362 0)
(2.72137 -0.422535 0)
(2.71044 -0.440702 0)
(2.70362 -0.417605 0)
(2.70472 -0.392745 0)
(2.69032 -0.362288 0)
(2.64651 -0.264023 0)
(2.57718 -0.152311 0)
(2.54719 -0.0858025 0)
(2.53175 -0.0860029 0)
(2.51257 -0.06767 0)
(2.49193 -0.0139822 0)
(2.48116 0.0120834 0)
(2.48093 0.0150288 0)
(2.49209 0.00451426 0)
(2.49227 -0.00186744 0)
(2.48595 -0.00609568 0)
(2.47455 -0.0194169 0)
(2.46931 -0.0305606 0)
(2.471 -0.0296532 0)
(2.47237 -0.021111 0)
(2.46268 -0.035627 0)
(2.37057 -0.168647 0)
(1.97962 -0.258701 0)
(1.24817 -0.106295 0)
(1.20569 -0.0384805 0)
(1.2604 -0.0516924 0)
(1.29474 -0.0908412 0)
(1.31396 -0.106737 0)
(1.32571 -0.105093 0)
(1.34793 -0.0940397 0)
(1.36548 -0.0755132 0)
(1.38134 -0.0591823 0)
(1.4016 -0.053195 0)
(1.42818 -0.0512861 0)
(1.45948 -0.0527326 0)
(1.48634 -0.053347 0)
(1.50729 -0.0517973 0)
(1.52725 -0.0450767 0)
(1.54311 -0.0307731 0)
(1.56102 -0.0161484 0)
(1.58416 -0.0108774 0)
(1.60894 -0.0128257 0)
(1.6352 -0.0192569 0)
(1.659 -0.0222636 0)
(1.67887 -0.021131 0)
(1.69835 -0.0153757 0)
(1.71446 -0.00490921 0)
(1.72568 0.00603908 0)
(1.74251 0.0100644 0)
(1.76264 0.00812148 0)
(1.78367 0.00293906 0)
(1.80577 -0.000102631 0)
(1.82584 0.00166553 0)
(1.84452 0.00968201 0)
(1.86094 0.021901 0)
(1.87206 0.0326181 0)
(1.882 0.0355197 0)
(1.89805 0.0299148 0)
(1.9155 0.0204974 0)
(1.93436 0.0116418 0)
(1.95613 0.00497114 0)
(1.97942 0.00158197 0)
(1.99787 0.00354773 0)
(2.01377 0.0148534 0)
(2.02226 0.0321278 0)
(2.02513 0.0431171 0)
(2.03588 0.0418116 0)
(2.05115 0.0359432 0)
(2.06658 0.0287731 0)
(2.08303 0.0225225 0)
(2.09975 0.0198541 0)
(2.11555 0.0244565 0)
(2.12645 0.0384343 0)
(2.13203 0.0494799 0)
(2.14362 0.0488646 0)
(2.15983 0.0431835 0)
(2.17602 0.0337905 0)
(2.19155 0.0237439 0)
(2.20612 0.0151602 0)
(2.22062 0.00929101 0)
(2.23667 0.00919239 0)
(2.25034 0.0183325 0)
(2.25858 0.0374176 0)
(2.26003 0.0548056 0)
(2.26751 0.0596997 0)
(2.28867 0.0536938 0)
(1.5998 0.97624 0)
(1.91858 0.840779 0)
(2.11885 0.723438 0)
(2.28889 0.547691 0)
(2.4719 0.272581 0)
(2.56308 0.138007 0)
(2.60395 0.0382966 0)
(2.68372 -0.158614 0)
(2.70493 -0.238476 0)
(2.72449 -0.330151 0)
(2.75192 -0.444357 0)
(2.75478 -0.499952 0)
(2.79271 -0.500538 0)
(2.7752 -0.475987 0)
(2.7555 -0.466604 0)
(2.71494 -0.407018 0)
(2.68117 -0.324605 0)
(2.66518 -0.267396 0)
(2.65727 -0.256181 0)
(2.62505 -0.210958 0)
(2.57571 -0.122777 0)
(2.56207 -0.0436369 0)
(2.55853 -0.035359 0)
(2.5521 -0.0388143 0)
(2.54316 -0.0209628 0)
(2.53704 -0.00838721 0)
(2.53065 -0.00574628 0)
(2.52034 -0.00204289 0)
(2.5202 0.00795231 0)
(2.51488 -0.00309478 0)
(2.43057 -0.100628 0)
(2.1751 -0.371364 0)
(2.07902 -0.636671 0)
(1.66796 -0.370123 0)
(1.42408 -0.159939 0)
(1.40179 -0.0711722 0)
(1.43367 -0.0431669 0)
(1.46348 -0.0633314 0)
(1.48304 -0.0899218 0)
(1.50301 -0.0928283 0)
(1.51626 -0.0813204 0)
(1.51998 -0.0560297 0)
(1.52455 -0.0314466 0)
(1.54179 -0.0207164 0)
(1.56429 -0.0206006 0)
(1.58885 -0.0279001 0)
(1.60866 -0.0322531 0)
(1.62614 -0.0319343 0)
(1.64087 -0.0252073 0)
(1.64928 -0.0104127 0)
(1.6594 0.00227099 0)
(1.67777 0.00624412 0)
(1.69789 0.00699636 0)
(1.72138 0.00397441 0)
(1.74371 -0.000618485 0)
(1.7629 -0.00312991 0)
(1.78025 -0.00366203 0)
(1.79064 0.00236282 0)
(1.79528 0.0133171 0)
(1.80768 0.0195575 0)
(1.82665 0.021263 0)
(1.84581 0.0218613 0)
(1.86695 0.0203621 0)
(1.88722 0.0176866 0)
(1.90485 0.0166393 0)
(1.91755 0.0180627 0)
(1.92133 0.0215197 0)
(1.92664 0.0213759 0)
(1.94222 0.0192735 0)
(1.96172 0.0194294 0)
(1.98235 0.021653 0)
(2.00521 0.0231702 0)
(2.02565 0.0236757 0)
(2.04399 0.0241628 0)
(2.05884 0.0287364 0)
(2.06163 0.0397782 0)
(2.05911 0.0464359 0)
(2.06888 0.043583 0)
(2.08472 0.0411475 0)
(2.10093 0.0408135 0)
(2.11927 0.0409354 0)
(2.13715 0.0416843 0)
(2.15355 0.0443226 0)
(2.16319 0.0528802 0)
(2.16381 0.0604086 0)
(2.16927 0.0567681 0)
(2.18175 0.0480329 0)
(2.19619 0.0387903 0)
(2.21237 0.0329157 0)
(2.22916 0.0328726 0)
(2.24798 0.0350391 0)
(2.26586 0.0370284 0)
(2.28215 0.041646 0)
(2.2904 0.056277 0)
(2.28758 0.0738632 0)
(2.29505 0.0707329 0)
(1.57344 0.920486 0)
(1.79726 0.845112 0)
(1.9664 0.776276 0)
(2.19037 0.583005 0)
(2.33132 0.398106 0)
(2.38059 0.357044 0)
(2.4912 0.201915 0)
(2.57329 0.00443793 0)
(2.61396 -0.0503859 0)
(2.63586 -0.0711623 0)
(2.67674 -0.181476 0)
(2.69141 -0.297021 0)
(2.71564 -0.316193 0)
(2.72894 -0.336935 0)
(2.71757 -0.390696 0)
(2.71073 -0.396226 0)
(2.7143 -0.392071 0)
(2.72068 -0.398914 0)
(2.72214 -0.393455 0)
(2.69983 -0.342634 0)
(2.66016 -0.252021 0)
(2.63875 -0.149909 0)
(2.62921 -0.123204 0)
(2.60557 -0.108518 0)
(2.60209 -0.0842145 0)
(2.58463 -0.0589927 0)
(2.56918 -0.0465884 0)
(2.56142 -0.0211016 0)
(2.54937 -0.018697 0)
(2.5012 -0.0733643 0)
(2.1826 -0.374904 0)
(1.9938 -0.524668 0)
(1.97957 -0.67416 0)
(1.91793 -0.620749 0)
(1.73065 -0.402726 0)
(1.56615 -0.19248 0)
(1.51713 -0.0996647 0)
(1.51625 -0.0638405 0)
(1.55131 -0.0623755 0)
(1.57672 -0.0743665 0)
(1.59337 -0.0794278 0)
(1.60251 -0.0667602 0)
(1.60087 -0.0412555 0)
(1.60936 -0.0218312 0)
(1.62758 -0.0164284 0)
(1.64944 -0.0198226 0)
(1.67294 -0.0280669 0)
(1.69054 -0.0308547 0)
(1.70686 -0.0296801 0)
(1.71831 -0.0218541 0)
(1.72444 -0.00524849 0)
(1.73561 0.00786917 0)
(1.75432 0.010907 0)
(1.77462 0.0097082 0)
(1.79542 0.00477833 0)
(1.81369 0.000881457 0)
(1.83064 -0.00133478 0)
(1.84394 7.37831e-05 0)
(1.85072 0.00953893 0)
(1.85582 0.0236654 0)
(1.86955 0.032042 0)
(1.88881 0.0336833 0)
(1.90826 0.0340232 0)
(1.92757 0.0321943 0)
(1.94579 0.028445 0)
(1.96032 0.0243073 0)
(1.96663 0.0233442 0)
(1.96874 0.0278103 0)
(1.98044 0.0327499 0)
(1.9978 0.0351134 0)
(2.01698 0.0382586 0)
(2.03769 0.041571 0)
(2.05593 0.0422965 0)
(2.07406 0.0418894 0)
(2.09058 0.0412067 0)
(2.09843 0.043176 0)
(2.0938 0.050812 0)
(2.09637 0.0569122 0)
(2.11145 0.0581399 0)
(2.1271 0.0584814 0)
(2.14513 0.0587542 0)
(2.16253 0.0583414 0)
(2.17961 0.0579033 0)
(2.19238 0.0578182 0)
(2.19143 0.0589313 0)
(2.18786 0.056029 0)
(2.198 0.0504304 0)
(2.21312 0.0478684 0)
(2.22833 0.0481416 0)
(2.24717 0.0512569 0)
(2.2661 0.0568806 0)
(2.28301 0.0606789 0)
(2.29996 0.0636454 0)
(2.3138 0.0690146 0)
(2.31503 0.0821615 0)