/*--------------------------------*- C++ -*----------------------------------*\
  =========                 |
  \\      /  F ield         | OpenFOAM: The Open Source CFD Toolbox
   \\    /   O peration     | Website:  https://openfoam.org
    \\  /    A nd           | Version:  7
     \\/     M anipulation  |
\*---------------------------------------------------------------------------*/
FoamFile
{
    version     2.0;
    format      ascii;
    class       volScalarField;
    location    "3.3";
    object      p;
}
// * * * * * * * * * * * * * * * * * * * * * * * * * * * * * * * * * * * * * //

dimensions      [1 -1 -2 0 0 0 0];

internalField   nonuniform List<scalar> 
258048
(
1
1
1
1
1
1
1
1
1
1
1
1
1
1
1
1
1
1
1
1
1
1
1
1
1
1
1
1
1
1
1
1
1
1
1
1
1
1
1
1
1
1
1
1
1
1
1
1
1
1
1
1
1
1
1
1
1
1
1
1
1
1
1
1
1
1
1
1
1
1
1
1
1
1
1
1
1
1
1
1
1
1
1
1
1
1
1
1
1
1
1
1
1
1
1
1
1
1
3.16033
9.52749
10.3637
10.412
10.4814
10.5336
10.5647
10.5673
10.5533
10.5344
10.5521
10.6163
10.6911
10.7576
10.8119
10.8372
10.8251
10.7958
10.781
10.8255
10.8947
10.9615
11.0185
11.0499
11.0448
11.0274
11.0206
11.0498
11.1021
11.1559
11.1976
11.2142
11.2093
11.2017
11.2076
11.2382
11.2897
11.3443
11.3856
11.4039
11.4051
11.4048
11.4128
11.4349
11.4681
11.5033
11.5308
11.5468
11.5561
11.5664
11.584
11.61
11.6377
11.6586
11.6701
11.678
11.6887
11.7059
11.7292
11.7532
11.772
11.7833
11.7907
11.801
11.8169
11.836
11.8537
11.8658
11.8731
11.8801
11.8912
11.907
11.9237
11.9382
11.9504
11.9607
11.9705
11.9815
11.9926
11.9982
11.9966
11.9932
11.9937
12.0019
12.015
12.0279
12.0363
12.0405
12.0434
12.0455
12.0458
12.0434
12.0377
12.0302
1
1
1
1
1
1
1
1
1
1
1
1
1
1
1
1
1
1
1
1
1
1
1
1
1
1
1
1
1
1
1
1
1
1
1
1
1
1
1
1
1
1
1
1
1
1
1
1
1
1
1
1
1
1
1
1
1
1
1
1
1
1
1
1
1
1
1
1
1
1
1
1
1
1
1
1
1
1
1
1
1
1
1
1
1
1
1
1
1
1
1
1
1
1
1
1
1
1
3.1361
9.53107
10.3616
10.4072
10.4728
10.5227
10.5552
10.5652
10.5604
10.5514
10.5636
10.6212
10.6892
10.7511
10.8013
10.826
10.8208
10.802
10.7902
10.8295
10.8962
10.96
11.0158
11.0452
11.0422
11.0277
11.0232
11.0502
11.1008
11.1526
11.1928
11.2097
11.2076
11.2034
11.2121
11.245
11.2956
11.3471
11.3846
11.3999
11.4002
11.4004
11.41
11.4346
11.4697
11.5053
11.5317
11.5456
11.5533
11.5631
11.5818
11.6101
11.6396
11.6607
11.6706
11.6767
11.6864
11.7037
11.7284
11.754
11.7733
11.7834
11.7886
11.7975
11.8135
11.8348
11.8553
11.8695
11.8768
11.8812
11.8884
11.9017
11.9192
11.937
11.9523
11.9636
11.9719
11.98
11.9893
11.9955
11.9961
11.9944
11.9945
12.0005
12.0119
12.025
12.0355
12.042
12.045
12.0456
12.0443
12.0414
12.0371
12.0315
1
1
1
1
1
1
1
1
1
1
1
1
1
1
1
1
1
1
1
1
1
1
1
1
1
1
1
1
1
1
1
1
1
1
1
1
1
1
1
1
1
1
1
1
1
1
1
1
1
1
1
1
1
1
1
1
1
1
1
1
1
1
1
1
1
1
1
1
1
1
1
1
1
1
1
1
1
1
1
1
1
1
1
1
1
1
1
1
1
1
1
1
1
1
1
1
1
1
3.08551
9.53502
10.3672
10.4046
10.4618
10.5076
10.5416
10.5581
10.5627
10.5671
10.5832
10.6303
10.6889
10.744
10.7871
10.8105
10.8126
10.806
10.8025
10.8384
10.8985
10.96
11.011
11.0374
11.0371
11.027
11.0266
11.0529
11.1014
11.1501
11.1872
11.2026
11.2026
11.202
11.2156
11.2531
11.3039
11.3522
11.3849
11.3957
11.3938
11.3939
11.4053
11.4329
11.471
11.5079
11.5333
11.5445
11.5498
11.5584
11.5782
11.6092
11.6414
11.6635
11.6717
11.6753
11.6831
11.6999
11.7263
11.7544
11.7753
11.7843
11.7868
11.7934
11.8085
11.8315
11.8556
11.8734
11.8817
11.8839
11.8865
11.8951
11.9119
11.9332
11.9529
11.967
11.9749
11.9797
11.985
11.9908
11.9945
11.9957
11.9963
11.9998
12.0082
12.0202
12.0328
12.0423
12.0467
12.0461
12.0428
12.0387
12.0354
12.0322
1
1
1
1
1
1
1
1
1
1
1
1
1
1
1
1
1
1
1
1
1
1
1
1
1
1
1
1
1
1
1
1
1
1
1
1
1
1
1
1
1
1
1
1
1
1
1
1
1
1
1
1
1
1
1
1
1
1
1
1
1
1
1
1
1
1
1
1
1
1
1
1
1
1
1
1
1
1
1
1
1
1
1
1
1
1
1
1
1
1
1
1
1
1
1
1
1
1
3.02502
9.51831
10.372
10.4012
10.4485
10.4916
10.5288
10.5542
10.5699
10.5824
10.6024
10.639
10.6864
10.7329
10.7706
10.7949
10.8063
10.8104
10.817
10.8498
10.9015
10.9567
11.0025
11.0272
11.0307
11.0254
11.0296
11.0565
11.1022
11.1474
11.1807
11.195
11.1975
11.2013
11.2215
11.2634
11.3135
11.3575
11.3839
11.3894
11.3856
11.3859
11.3998
11.4315
11.4728
11.5107
11.534
11.5421
11.5454
11.553
11.5742
11.6087
11.6434
11.6659
11.6724
11.6736
11.6795
11.6955
11.7233
11.7543
11.7762
11.7839
11.7842
11.789
11.8036
11.8285
11.8562
11.8773
11.8862
11.886
11.8843
11.8885
11.9038
11.9284
11.953
11.9698
11.9771
11.9789
11.9805
11.9856
11.9918
11.9957
11.9968
11.9983
12.004
12.015
12.0298
12.0426
12.048
12.0461
12.0409
12.0358
12.0336
12.0328
1
1
1
1
1
1
1
1
1
1
1
1
1
1
1
1
1
1
1
1
1
1
1
1
1
1
1
1
1
1
1
1
1
1
1
1
1
1
1
1
1
1
1
1
1
1
1
1
1
1
1
1
1
1
1
1
1
1
1
1
1
1
1
1
1
1
1
1
1
1
1
1
1
1
1
1
1
1
1
1
1
1
1
1
1
1
1
1
1
1
1
1
1
1
1
1
1
1
2.95731
9.48116
10.3796
10.398
10.4367
10.4785
10.5191
10.551
10.5743
10.5922
10.6134
10.6443
10.6829
10.7222
10.7566
10.7825
10.8001
10.813
10.8287
10.8598
10.9048
10.9532
10.9936
11.0166
11.0225
11.0221
11.0316
11.0605
11.1043
11.146
11.1755
11.1881
11.1924
11.2002
11.2266
11.2722
11.3218
11.3617
11.3821
11.3829
11.3773
11.378
11.3944
11.4301
11.4739
11.5122
11.5336
11.5392
11.5413
11.5485
11.5707
11.6074
11.6438
11.6664
11.6719
11.6717
11.6764
11.6916
11.7199
11.7522
11.7748
11.7817
11.7813
11.7854
11.7999
11.8264
11.8567
11.8793
11.8883
11.8864
11.8824
11.8839
11.8975
11.9233
11.9513
11.9704
11.9777
11.9778
11.9773
11.9812
11.9882
11.9937
11.9956
11.9963
12.0003
12.0103
12.0264
12.0413
12.0477
12.045
12.0386
12.0331
12.0316
12.0325
1
1
1
1
1
1
1
1
1
1
1
1
1
1
1
1
1
1
1
1
1
1
1
1
1
1
1
1
1
1
1
1
1
1
1
1
1
1
1
1
1
1
1
1
1
1
1
1
1
1
1
1
1
1
1
1
1
1
1
1
1
1
1
1
1
1
1
1
1
1
1
1
1
1
1
1
1
1
1
1
1
1
1
1
1
1
1
1
1
1
1
1
1
1
1
1
1
1
2.87981
9.42783
10.3811
10.3915
10.4254
10.4681
10.513
10.5503
10.5788
10.5995
10.62
10.6466
10.6788
10.7136
10.7469
10.7748
10.7968
10.8152
10.8358
10.866
10.906
10.9485
10.9838
11.0052
11.0137
11.0189
11.0339
11.0645
11.1066
11.1451
11.1712
11.1827
11.1886
11.2
11.2311
11.278
11.3264
11.3629
11.3787
11.3767
11.3703
11.3718
11.3903
11.4284
11.4732
11.5112
11.5312
11.5359
11.538
11.5459
11.569
11.6056
11.6416
11.6639
11.6691
11.669
11.674
11.6896
11.7173
11.7485
11.7703
11.7771
11.7774
11.7828
11.7987
11.8263
11.8567
11.8785
11.8866
11.8842
11.88
11.8814
11.8944
11.9193
11.9473
11.9676
11.9759
11.9763
11.9754
11.9783
11.9843
11.9896
11.9921
11.9933
11.9974
12.0073
12.0229
12.038
12.0449
12.0425
12.0362
12.0309
12.0299
12.0311
1
1
1
1
1
1
1
1
1
1
1
1
1
1
1
1
1
1
1
1
1
1
1
1
1
1
1
1
1
1
1
1
1
1
1
1
1
1
1
1
1
1
1
1
1
1
1
1
1
1
1
1
1
1
1
1
1
1
1
1
1
1
1
1
1
1
1
1
1
1
1
1
1
1
1
1
1
1
1
1
1
1
1
1
1
1
1
1
1
1
1
1
1
1
1
1
1
1
2.78526
9.36051
10.3766
10.3834
10.416
10.4595
10.5074
10.5481
10.5801
10.6034
10.6238
10.648
10.6765
10.7086
10.7411
10.7702
10.795
10.8172
10.8402
10.8695
10.905
10.9419
10.9729
10.9937
11.0065
11.018
11.0379
11.0691
11.1082
11.1428
11.1662
11.1779
11.1864
11.2015
11.2352
11.281
11.327
11.3607
11.3738
11.371
11.3651
11.3682
11.3883
11.4267
11.4705
11.5071
11.5267
11.5322
11.5357
11.5456
11.5696
11.6045
11.6379
11.6581
11.6636
11.6653
11.6721
11.6894
11.7166
11.7445
11.7633
11.7697
11.772
11.7804
11.7998
11.8285
11.8568
11.8751
11.8809
11.8787
11.8762
11.8798
11.8938
11.917
11.9423
11.9615
11.9713
11.9738
11.9744
11.9766
11.9802
11.9839
11.9866
11.9896
11.9955
12.0058
12.0199
12.0333
12.0399
12.0385
12.0338
12.0295
12.0284
12.0286
1
1
1
1
1
1
1
1
1
1
1
1
1
1
1
1
1
1
1
1
1
1
1
1
1
1
1
1
1
1
1
1
1
1
1
1
1
1
1
1
1
1
1
1
1
1
1
1
1
1
1
1
1
1
1
1
1
1
1
1
1
1
1
1
1
1
1
1
1
1
1
1
1
1
1
1
1
1
1
1
1
1
1
1
1
1
1
1
1
1
1
1
1
1
1
1
1
1
2.67504
9.28427
10.3679
10.3754
10.4088
10.4542
10.5039
10.5459
10.5787
10.6035
10.6246
10.6481
10.6751
10.7053
10.7374
10.7682
10.7956
10.8203
10.8438
10.871
10.9019
10.9332
10.9607
10.9833
11.0023
11.0207
11.0441
11.0738
11.1078
11.1375
11.1589
11.1731
11.1859
11.205
11.2389
11.2811
11.3234
11.3544
11.367
11.3657
11.3624
11.3678
11.3888
11.4258
11.4664
11.5001
11.5194
11.5273
11.5337
11.5469
11.5719
11.6044
11.6334
11.6499
11.6554
11.6598
11.6698
11.69
11.7169
11.7412
11.7552
11.7599
11.7644
11.7771
11.8016
11.8324
11.8585
11.8718
11.8733
11.8704
11.8704
11.8778
11.8944
11.9165
11.938
11.9543
11.9643
11.9696
11.973
11.9751
11.9761
11.9774
11.9801
11.9856
11.994
12.005
12.0169
12.027
12.0327
12.0333
12.0312
12.0283
12.0266
12.0248
1
1
1
1
1
1
1
1
1
1
1
1
1
1
1
1
1
1
1
1
1
1
1
1
1
1
1
1
1
1
1
1
1
1
1
1
1
1
1
1
1
1
1
1
1
1
1
1
1
1
1
1
1
1
1
1
1
1
1
1
1
1
1
1
1
1
1
1
1
1
1
1
1
1
1
1
1
1
1
1
1
1
1
1
1
1
1
1
1
1
1
1
1
1
1
1
1
1
2.54766
9.19784
10.3615
10.3682
10.4026
10.4505
10.5016
10.5439
10.5763
10.6012
10.6224
10.6463
10.6732
10.703
10.7359
10.7688
10.7985
10.8244
10.847
10.8703
10.8958
10.9213
10.9476
10.9751
11.0019
11.0268
11.052
11.0782
11.1054
11.1297
11.1499
11.1678
11.1861
11.2092
11.2422
11.2797
11.3166
11.3447
11.3582
11.3603
11.3617
11.3702
11.3918
11.4259
11.4618
11.4913
11.5095
11.5199
11.5304
11.5479
11.5749
11.605
11.6292
11.6419
11.6463
11.6524
11.6663
11.6901
11.7174
11.7386
11.7482
11.7501
11.7555
11.7727
11.8025
11.8359
11.8601
11.8687
11.8652
11.8605
11.862
11.8739
11.8944
11.9166
11.9348
11.9473
11.9562
11.9635
11.9697
11.9726
11.9722
11.9715
11.9738
11.9812
11.992
12.0035
12.0132
12.0199
12.0247
12.0277
12.0283
12.0269
12.0244
12.02
1
1
1
1
1
1
1
1
1
1
1
1
1
1
1
1
1
1
1
1
1
1
1
1
1
1
1
1
1
1
1
1
1
1
1
1
1
1
1
1
1
1
1
1
1
1
1
1
1
1
1
1
1
1
1
1
1
1
1
1
1
1
1
1
1
1
1
1
1
1
1
1
1
1
1
1
1
1
1
1
1
1
1
1
1
1
1
1
1
1
1
1
1
1
1
1
1
1
2.40875
9.0918
10.3582
10.3666
10.4025
10.4511
10.5014
10.5419
10.5723
10.5958
10.6167
10.6415
10.6702
10.7011
10.7356
10.7705
10.8014
10.8272
10.848
10.8673
10.8876
10.9087
10.9362
10.9706
11.0047
11.0346
11.0596
11.0808
11.1006
11.12
11.14
11.1621
11.1859
11.2127
11.2444
11.2773
11.3086
11.3334
11.3478
11.3545
11.3611
11.374
11.3964
11.427
11.4574
11.4819
11.4979
11.5101
11.5249
11.5475
11.5771
11.6061
11.6265
11.6354
11.6379
11.6442
11.6607
11.6875
11.7157
11.7349
11.7416
11.7415
11.7471
11.7677
11.8024
11.8382
11.8608
11.8656
11.8583
11.8511
11.853
11.8681
11.8928
11.9165
11.9324
11.9413
11.948
11.9558
11.9641
11.9686
11.968
11.9664
11.9684
11.9765
11.9886
12.0003
12.0082
12.0128
12.0173
12.0222
12.025
12.0247
12.0212
12.0145
1
1
1
1
1
1
1
1
1
1
1
1
1
1
1
1
1
1
1
1
1
1
1
1
1
1
1
1
1
1
1
1
1
1
1
1
1
1
1
1
1
1
1
1
1
1
1
1
1
1
1
1
1
1
1
1
1
1
1
1
1
1
1
1
1
1
1
1
1
1
1
1
1
1
1
1
1
1
1
1
1
1
1
1
1
1
1
1
1
1
1
1
1
1
1
1
1
1
2.26038
8.96346
10.3591
10.371
10.4089
10.4549
10.5014
10.5389
10.566
10.5877
10.6087
10.6348
10.6661
10.6992
10.7352
10.7714
10.8021
10.8268
10.8455
10.8615
10.8785
10.8985
10.9297
10.9701
11.0093
11.0406
11.0636
11.0802
11.0937
11.1102
11.1314
11.1575
11.1856
11.2145
11.2448
11.2734
11.2998
11.3216
11.3365
11.3476
11.3599
11.3778
11.4012
11.4283
11.4531
11.4723
11.4858
11.499
11.5179
11.5455
11.5778
11.6065
11.6244
11.6303
11.6315
11.6374
11.6545
11.6823
11.7108
11.7294
11.7352
11.735
11.7412
11.7629
11.7997
11.8374
11.8594
11.8612
11.8519
11.8429
11.8442
11.8607
11.8887
11.9147
11.93
11.9364
11.9406
11.9474
11.9569
11.9633
11.9638
11.9625
11.9641
11.9718
11.9836
11.9947
12.0018
12.0059
12.0109
12.0172
12.0212
12.021
12.0165
12.008
1
1
1
1
1
1
1
1
1
1
1
1
1
1
1
1
1
1
1
1
1
1
1
1
1
1
1
1
1
1
1
1
1
1
1
1
1
1
1
1
1
1
1
1
1
1
1
1
1
1
1
1
1
1
1
1
1
1
1
1
1
1
1
1
1
1
1
1
1
1
1
1
1
1
1
1
1
1
1
1
1
1
1
1
1
1
1
1
1
1
1
1
1
1
1
1
1
1
2.10526
8.81078
10.365
10.379
10.4178
10.459
10.5003
10.5336
10.5577
10.5781
10.5999
10.6276
10.6614
10.6966
10.7336
10.7693
10.7987
10.8212
10.8383
10.8532
10.8708
10.8936
10.9297
10.9735
11.013
11.0422
11.0619
11.0748
11.085
11.1023
11.1261
11.1544
11.1843
11.2134
11.242
11.2676
11.2904
11.3102
11.3258
11.341
11.3589
11.3811
11.4053
11.4291
11.4487
11.4629
11.4741
11.4883
11.5105
11.5419
11.5763
11.605
11.6212
11.6254
11.626
11.6318
11.6482
11.6748
11.7023
11.721
11.7279
11.7297
11.7377
11.7601
11.7957
11.8327
11.8543
11.8558
11.8463
11.837
11.838
11.8542
11.8829
11.9103
11.926
11.9313
11.9337
11.9391
11.9485
11.9564
11.9589
11.9585
11.9598
11.9663
11.9764
11.9866
11.9941
11.9995
12.0059
12.0129
12.0166
12.0157
12.0103
12.0009
1
1
1
1
1
1
1
1
1
1
1
1
1
1
1
1
1
1
1
1
1
1
1
1
1
1
1
1
1
1
1
1
1
1
1
1
1
1
1
1
1
1
1
1
1
1
1
1
1
1
1
1
1
1
1
1
1
1
1
1
1
1
1
1
1
1
1
1
1
1
1
1
1
1
1
1
1
1
1
1
1
1
1
1
1
1
1
1
1
1
1
1
1
1
1
1
1
1
1.94979
8.63446
10.3732
10.3869
10.4239
10.46
10.4972
10.5278
10.5508
10.5711
10.5936
10.6217
10.6562
10.6921
10.7285
10.7624
10.7894
10.8101
10.8272
10.8447
10.8669
10.8952
10.9353
10.9783
11.0135
11.038
11.0541
11.0652
11.0768
11.098
11.1242
11.1526
11.1814
11.2094
11.2362
11.2602
11.2812
11.2999
11.3163
11.3349
11.3574
11.3825
11.4069
11.4277
11.4424
11.4524
11.4623
11.4781
11.5038
11.5379
11.5729
11.6006
11.6155
11.6196
11.6211
11.6279
11.6441
11.6681
11.6926
11.7101
11.7189
11.7246
11.7365
11.7599
11.7928
11.825
11.8438
11.8463
11.8389
11.8317
11.8335
11.8491
11.8761
11.9027
11.919
11.925
11.9272
11.9319
11.9407
11.9492
11.9533
11.954
11.9552
11.9598
11.9677
11.9771
11.986
11.9937
12.002
12.0089
12.0113
12.0089
12.0027
11.9934
1
1
1
1
1
1
1
1
1
1
1
1
1
1
1
1
1
1
1
1
1
1
1
1
1
1
1
1
1
1
1
1
1
1
1
1
1
1
1
1
1
1
1
1
1
1
1
1
1
1
1
1
1
1
1
1
1
1
1
1
1
1
1
1
1
1
1
1
1
1
1
1
1
1
1
1
1
1
1
1
1
1
1
1
1
1
1
1
1
1
1
1
1
1
1
1
1
1
1.79966
8.43314
10.3794
10.3933
10.4263
10.4591
10.4938
10.5232
10.5462
10.5669
10.5903
10.6186
10.6522
10.6873
10.7213
10.7518
10.7759
10.7954
10.8146
10.8373
10.866
10.9011
10.9429
10.9821
11.011
11.0286
11.0409
11.0533
11.0707
11.0966
11.1239
11.1503
11.1764
11.2021
11.2277
11.2515
11.2725
11.2913
11.3086
11.3296
11.355
11.3821
11.4064
11.4243
11.4347
11.4415
11.4511
11.4697
11.4995
11.5357
11.5692
11.5931
11.605
11.609
11.613
11.6228
11.6405
11.6627
11.6831
11.6979
11.7081
11.7189
11.7361
11.7616
11.7915
11.817
11.8313
11.8343
11.8303
11.827
11.8311
11.846
11.8694
11.8927
11.9087
11.9165
11.9205
11.9257
11.9338
11.9418
11.9464
11.948
11.9491
11.9522
11.9583
11.9674
11.9781
11.9888
11.9985
12.0045
12.0049
12.0009
11.994
11.9853
1
1
1
1
1
1
1
1
1
1
1
1
1
1
1
1
1
1
1
1
1
1
1
1
1
1
1
1
1
1
1
1
1
1
1
1
1
1
1
1
1
1
1
1
1
1
1
1
1
1
1
1
1
1
1
1
1
1
1
1
1
1
1
1
1
1
1
1
1
1
1
1
1
1
1
1
1
1
1
1
1
1
1
1
1
1
1
1
1
1
1
1
1
1
1
1
1
1
1.65362
8.20195
10.3846
10.3947
10.4239
10.4557
10.4894
10.5181
10.5415
10.5638
10.5892
10.6182
10.6502
10.6826
10.7132
10.7393
10.7599
10.7795
10.8031
10.8328
10.8687
10.9087
10.9488
10.9814
11.002
11.0138
11.026
11.0436
11.068
11.097
11.123
11.1458
11.1684
11.192
11.2176
11.2427
11.265
11.2844
11.3025
11.3249
11.3516
11.3795
11.4032
11.4181
11.4249
11.4293
11.4397
11.4624
11.4969
11.5352
11.5667
11.5856
11.5928
11.5957
11.6025
11.6171
11.6382
11.6599
11.6764
11.6871
11.6967
11.7113
11.7341
11.7623
11.7893
11.8084
11.8172
11.8191
11.8191
11.8214
11.8291
11.8438
11.8628
11.8815
11.8963
11.9065
11.9141
11.9214
11.9289
11.935
11.9383
11.9398
11.9406
11.9429
11.9483
11.9576
11.9702
11.9837
11.9943
11.9988
11.9974
11.9917
11.9846
11.9766
1
1
1
1
1
1
1
1
1
1
1
1
1
1
1
1
1
1
1
1
1
1
1
1
1
1
1
1
1
1
1
1
1
1
1
1
1
1
1
1
1
1
1
1
1
1
1
1
1
1
1
1
1
1
1
1
1
1
1
1
1
1
1
1
1
1
1
1
1
1
1
1
1
1
1
1
1
1
1
1
1
1
1
1
1
1
1
1
1
1
1
1
1
1
1
1
1
1
1.51383
7.94234
10.3936
10.3919
10.4186
10.4502
10.4835
10.5117
10.5361
10.5612
10.5892
10.6203
10.652
10.6816
10.7077
10.7282
10.7449
10.7661
10.7956
10.8318
10.8725
10.9134
10.9498
10.975
10.9885
10.9987
11.0148
11.0391
11.0683
11.0972
11.1199
11.1384
11.1578
11.1806
11.2079
11.2354
11.2591
11.279
11.2973
11.3203
11.3479
11.3762
11.3989
11.4112
11.4151
11.418
11.4293
11.4557
11.4942
11.5339
11.5633
11.577
11.5793
11.5801
11.5889
11.6092
11.6353
11.6578
11.6713
11.6781
11.6857
11.7022
11.7292
11.7602
11.7857
11.7999
11.8037
11.8038
11.8066
11.8149
11.8274
11.8422
11.8572
11.8708
11.883
11.8949
11.9067
11.9173
11.9241
11.9271
11.9283
11.9288
11.9298
11.9326
11.9386
11.9489
11.963
11.9781
11.9889
11.992
11.989
11.9821
11.9748
11.9673
1
1
1
1
1
1
1
1
1
1
1
1
1
1
1
1
1
1
1
1
1
1
1
1
1
1
1
1
1
1
1
1
1
1
1
1
1
1
1
1
1
1
1
1
1
1
1
1
1
1
1
1
1
1
1
1
1
1
1
1
1
1
1
1
1
1
1
1
1
1
1
1
1
1
1
1
1
1
1
1
1
1
1
1
1
1
1
1
1
1
1
1
1
1
1
1
1
1
1.381
7.65672
10.3975
10.3884
10.4158
10.4454
10.4768
10.5037
10.5287
10.5571
10.5891
10.6226
10.6545
10.682
10.7038
10.7195
10.7335
10.7571
10.7915
10.8316
10.8733
10.912
10.943
10.9616
10.9729
10.987
11.0096
11.039
11.0694
11.0954
11.1134
11.1277
11.1455
11.1695
11.1997
11.2298
11.2548
11.2745
11.2923
11.3147
11.342
11.3699
11.3922
11.4036
11.4067
11.4091
11.4209
11.4491
11.4893
11.5294
11.5571
11.5675
11.5665
11.5657
11.5756
11.6002
11.6308
11.655
11.6672
11.6712
11.6767
11.6928
11.7216
11.7546
11.7799
11.7912
11.792
11.7903
11.7942
11.8067
11.8234
11.8387
11.8506
11.8601
11.8699
11.8831
11.8991
11.9129
11.9192
11.9192
11.9172
11.9162
11.9177
11.9219
11.9296
11.9413
11.956
11.9713
11.9816
11.9838
11.9799
11.9724
11.9648
11.9571
1
1
1
1
1
1
1
1
1
1
1
1
1
1
1
1
1
1
1
1
1
1
1
1
1
1
1
1
1
1
1
1
1
1
1
1
1
1
1
1
1
1
1
1
1
1
1
1
1
1
1
1
1
1
1
1
1
1
1
1
1
1
1
1
1
1
1
1
1
1
1
1
1
1
1
1
1
1
1
1
1
1
1
1
1
1
1
1
1
1
1
1
1
1
1
1
1
1
1.25801
7.35123
10.3765
10.3814
10.4118
10.4401
10.4701
10.4957
10.5201
10.5498
10.5846
10.6211
10.6549
10.682
10.702
10.7151
10.7282
10.754
10.7902
10.8302
10.8696
10.9041
10.9294
10.9445
10.9586
10.9803
11.0095
11.0409
11.0695
11.0906
11.1034
11.1147
11.1327
11.1596
11.1932
11.2255
11.2511
11.2702
11.2868
11.3076
11.3336
11.3608
11.3834
11.3956
11.4001
11.4036
11.4156
11.4427
11.4812
11.5197
11.5463
11.5559
11.5548
11.5548
11.566
11.592
11.624
11.6494
11.6619
11.6653
11.6697
11.6843
11.712
11.7448
11.7702
11.7811
11.7812
11.7791
11.7836
11.7981
11.8172
11.8324
11.8423
11.8497
11.858
11.872
11.8914
11.9073
11.9127
11.9104
11.905
11.9022
11.9047
11.9109
11.9211
11.9342
11.9487
11.9628
11.9723
11.9743
11.9704
11.9626
11.9545
11.9462
1
1
1
1
1
1
1
1
1
1
1
1
1
1
1
1
1
1
1
1
1
1
1
1
1
1
1
1
1
1
1
1
1
1
1
1
1
1
1
1
1
1
1
1
1
1
1
1
1
1
1
1
1
1
1
1
1
1
1
1
1
1
1
1
1
1
1
1
1
1
1
1
1
1
1
1
1
1
1
1
1
1
1
1
1
1
1
1
1
1
1
1
1
1
1
1
1
1
1.12972
7.03307
10.3546
10.3846
10.4095
10.4383
10.4678
10.492
10.5145
10.5426
10.5769
10.614
10.6498
10.679
10.7
10.7136
10.728
10.7542
10.7891
10.8261
10.8614
10.891
10.9122
10.9282
10.9487
10.9778
11.0108
11.0419
11.0667
11.0823
11.0913
11.1018
11.1215
11.1516
11.1877
11.2211
11.2469
11.2653
11.2808
11.2995
11.3232
11.3491
11.3724
11.3871
11.3951
11.4013
11.4137
11.4375
11.4705
11.5046
11.5298
11.5414
11.5438
11.5477
11.5616
11.5867
11.6161
11.6401
11.6533
11.6582
11.6633
11.6769
11.7019
11.7321
11.7568
11.7689
11.7709
11.7704
11.7756
11.7905
11.8091
11.8229
11.8315
11.8386
11.8467
11.8615
11.8831
11.9
11.9044
11.9002
11.8921
11.888
11.8914
11.9
11.9127
11.9269
11.9405
11.9529
11.9615
11.9639
11.9604
11.9526
11.9438
11.9348
1
1
1
1
1
1
1
1
1
1
1
1
1
1
1
1
1
1
1
1
1
1
1
1
1
1
1
1
1
1
1
1
1
1
1
1
1
1
1
1
1
1
1
1
1
1
1
1
1
1
1
1
1
1
1
1
1
1
1
1
1
1
1
1
1
1
1
1
1
1
1
1
1
1
1
1
1
1
1
1
1
1
1
1
1
1
1
1
1
1
1
1
1
1
1
1
1
1
1.00835
6.70982
10.3147
10.3644
10.3902
10.423
10.4563
10.4864
10.5129
10.5397
10.5701
10.6034
10.6373
10.6688
10.6944
10.7128
10.731
10.7571
10.7887
10.8203
10.8491
10.8736
10.894
10.9151
10.9432
10.9772
11.011
11.0396
11.0596
11.0711
11.0789
11.0909
11.113
11.1451
11.1815
11.2146
11.2401
11.2586
11.2737
11.291
11.3127
11.3366
11.36
11.3774
11.39
11.4001
11.4135
11.4333
11.459
11.4858
11.5082
11.5233
11.533
11.5441
11.5614
11.5844
11.6083
11.6281
11.641
11.6487
11.6568
11.6709
11.6927
11.7182
11.7405
11.7541
11.7596
11.7627
11.7699
11.7837
11.7996
11.8107
11.8185
11.8263
11.8357
11.8517
11.8745
11.8914
11.8946
11.8889
11.8789
11.874
11.8782
11.889
11.9038
11.9186
11.9312
11.9418
11.9497
11.9523
11.9497
11.9419
11.9325
11.9229
1
1
1
1
1
1
1
1
1
1
1
1
1
1
1
1
1
1
1
1
1
1
1
1
1
1
1
1
1
1
1
1
1
1
1
1
1
1
1
1
1
1
1
1
1
1
1
1
1
1
1
1
1
1
1
1
1
1
1
1
1
1
1
1
1
1
1
1
1
1
1
1
1
1
1
1
1
1
1
1
1
1
1
1
1
1
1
1
1
1
1
1
1
1
1
1
1
1
1.00008
6.2768
10.2619
10.3427
10.3735
10.4107
10.4472
10.4817
10.5117
10.5381
10.5647
10.5941
10.6256
10.6575
10.6869
10.7117
10.7348
10.7595
10.7849
10.8091
10.8321
10.8552
10.8794
10.9077
10.9414
10.9773
11.0098
11.034
11.0493
11.0587
11.0677
11.0829
11.1076
11.14
11.1745
11.2053
11.23
11.2489
11.2651
11.2826
11.3034
11.3256
11.3478
11.3664
11.3829
11.3974
11.4125
11.4294
11.4481
11.467
11.4851
11.5031
11.5218
11.5421
11.5632
11.5836
11.6011
11.6151
11.6262
11.6366
11.6489
11.6647
11.6837
11.704
11.7225
11.7368
11.7466
11.755
11.7653
11.7781
11.7899
11.7974
11.8039
11.8126
11.8241
11.842
11.8653
11.8813
11.8831
11.8762
11.8653
11.8603
11.8652
11.8776
11.894
11.9091
11.9208
11.9301
11.9372
11.9399
11.9378
11.9303
11.9206
11.9108
1
1
1
1
1
1
1
1
1
1
1
1
1
1
1
1
1
1
1
1
1
1
1
1
1
1
1
1
1
1
1
1
1
1
1
1
1
1
1
1
1
1
1
1
1
1
1
1
1
1
1
1
1
1
1
1
1
1
1
1
1
1
1
1
1
1
1
1
1
1
1
1
1
1
1
1
1
1
1
1
1
1
1
1
1
1
1
1
1
1
1
1
1
1
1
1
1
1
1
5.80097
10.2163
10.3282
10.356
10.3974
10.4368
10.4756
10.5088
10.5349
10.5588
10.5849
10.6149
10.6478
10.6808
10.7106
10.7364
10.7585
10.7775
10.7961
10.8169
10.8415
10.8706
10.9042
10.9407
10.9757
11.0041
11.0233
11.0356
11.0457
11.0585
11.0779
11.1047
11.1359
11.1668
11.1937
11.216
11.2354
11.2537
11.2735
11.2954
11.3171
11.3375
11.3554
11.3734
11.3907
11.4079
11.4233
11.4372
11.4499
11.4641
11.4835
11.5093
11.5379
11.5633
11.5818
11.5938
11.6023
11.611
11.6231
11.6391
11.657
11.6741
11.6899
11.7047
11.7186
11.7323
11.7465
11.7607
11.7726
11.7799
11.7831
11.7878
11.7971
11.8113
11.8319
11.8557
11.8704
11.8704
11.8624
11.8515
11.8469
11.8524
11.8658
11.8829
11.8982
11.9094
11.9179
11.9242
11.9266
11.9245
11.9174
11.9079
11.8987
1
1
1
1
1
1
1
1
1
1
1
1
1
1
1
1
1
1
1
1
1
1
1
1
1
1
1
1
1
1
1
1
1
1
1
1
1
1
1
1
1
1
1
1
1
1
1
1
1
1
1
1
1
1
1
1
1
1
1
1
1
1
1
1
1
1
1
1
1
1
1
1
1
1
1
1
1
1
1
1
1
1
1
1
1
1
1
1
1
1
1
1
1
1
1
1
1
1
1
5.29688
10.1576
10.3172
10.3438
10.3867
10.4267
10.4678
10.5045
10.5322
10.5543
10.5778
10.6068
10.6399
10.6743
10.7066
10.7328
10.7522
10.7675
10.7841
10.8056
10.8328
10.8655
10.9019
10.9383
10.9703
10.9943
11.0103
11.022
11.0348
11.052
11.075
11.1028
11.1321
11.159
11.1813
11.2005
11.2193
11.2398
11.2631
11.2876
11.3101
11.3295
11.3456
11.3626
11.3799
11.3978
11.4129
11.4249
11.435
11.4479
11.4686
11.4977
11.5302
11.558
11.576
11.585
11.5902
11.5972
11.6099
11.6279
11.6469
11.6628
11.6754
11.6873
11.7007
11.7173
11.7365
11.7548
11.7662
11.7692
11.7689
11.7713
11.7807
11.7976
11.8212
11.8455
11.8586
11.8566
11.8476
11.8371
11.8335
11.8397
11.8534
11.8705
11.8858
11.8969
11.9053
11.9108
11.9123
11.9099
11.9031
11.8944
11.8864
1
1
1
1
1
1
1
1
1
1
1
1
1
1
1
1
1
1
1
1
1
1
1
1
1
1
1
1
1
1
1
1
1
1
1
1
1
1
1
1
1
1
1
1
1
1
1
1
1
1
1
1
1
1
1
1
1
1
1
1
1
1
1
1
1
1
1
1
1
1
1
1
1
1
1
1
1
1
1
1
1
1
1
1
1
1
1
1
1
1
1
1
1
1
1
1
1
1
1
4.78107
10.0699
10.3109
10.3369
10.379
10.4174
10.4587
10.4975
10.5272
10.55
10.5728
10.601
10.6336
10.6676
10.7
10.7261
10.7441
10.7583
10.7752
10.7985
10.8272
10.8609
10.8969
10.9311
10.9598
10.9813
10.997
11.0104
11.0264
11.0467
11.0717
11.0998
11.1272
11.1506
11.1691
11.1856
11.2036
11.2255
11.2514
11.2786
11.303
11.3226
11.3376
11.3526
11.3675
11.3836
11.3979
11.41
11.4211
11.4362
11.4592
11.4892
11.5209
11.5476
11.5647
11.5732
11.5783
11.5854
11.5982
11.616
11.6342
11.6488
11.6598
11.6705
11.684
11.7029
11.7255
11.7464
11.7576
11.7574
11.7543
11.7543
11.7638
11.7834
11.8098
11.8344
11.8458
11.8415
11.8317
11.8221
11.82
11.8269
11.8405
11.8571
11.8721
11.8834
11.8919
11.8968
11.8971
11.8942
11.8876
11.8802
11.8737
1
1
1
1
1
1
1
1
1
1
1
1
1
1
1
1
1
1
1
1
1
1
1
1
1
1
1
1
1
1
1
1
1
1
1
1
1
1
1
1
1
1
1
1
1
1
1
1
1
1
1
1
1
1
1
1
1
1
1
1
1
1
1
1
1
1
1
1
1
1
1
1
1
1
1
1
1
1
1
1
1
1
1
1
1
1
1
1
1
1
1
1
1
1
1
1
1
1
1
4.25814
9.94533
10.3077
10.3346
10.3765
10.4119
10.4505
10.4896
10.5212
10.5454
10.5683
10.5961
10.6277
10.6602
10.6916
10.7175
10.7361
10.751
10.7692
10.7938
10.8226
10.8546
10.8883
10.9199
10.9468
10.9683
10.9861
11.0023
11.0203
11.0415
11.0663
11.0931
11.1183
11.1393
11.1565
11.1729
11.1913
11.2136
11.2399
11.2677
11.2934
11.3144
11.3299
11.3437
11.3555
11.3674
11.3792
11.3918
11.407
11.4279
11.4542
11.4828
11.5099
11.5321
11.5477
11.5579
11.566
11.5754
11.5882
11.6037
11.619
11.6319
11.6427
11.6541
11.6689
11.6896
11.7137
11.7351
11.7458
11.744
11.7386
11.7373
11.7472
11.7693
11.798
11.8222
11.8314
11.8252
11.8148
11.8067
11.8063
11.814
11.8274
11.8429
11.8571
11.8686
11.8776
11.882
11.8812
11.8775
11.8712
11.8652
11.8603
1
1
1
1
1
1
1
1
1
1
1
1
1
1
1
1
1
1
1
1
1
1
1
1
1
1
1
1
1
1
1
1
1
1
1
1
1
1
1
1
1
1
1
1
1
1
1
1
1
1
1
1
1
1
1
1
1
1
1
1
1
1
1
1
1
1
1
1
1
1
1
1
1
1
1
1
1
1
1
1
1
1
1
1
1
1
1
1
1
1
1
1
1
1
1
1
1
1
1
3.73225
9.7834
10.306
10.336
10.378
10.4112
10.4456
10.4825
10.5146
10.5394
10.5626
10.5899
10.6206
10.6517
10.6821
10.7082
10.728
10.7445
10.7639
10.7893
10.8169
10.8463
10.8773
10.907
10.9336
10.9569
10.9784
10.9976
11.0164
11.036
11.0578
11.0809
11.1037
11.1251
11.1452
11.1645
11.1841
11.2054
11.2288
11.2541
11.2799
11.3033
11.3217
11.3362
11.3451
11.3516
11.3591
11.3718
11.393
11.4217
11.4515
11.4775
11.498
11.5138
11.527
11.5398
11.553
11.5663
11.579
11.5909
11.602
11.6127
11.6242
11.6379
11.6554
11.6773
11.7012
11.7212
11.7307
11.7281
11.722
11.7204
11.7311
11.7554
11.7854
11.8082
11.8151
11.8076
11.7971
11.7908
11.7925
11.8011
11.8138
11.8276
11.8408
11.8524
11.8619
11.8663
11.8646
11.8601
11.854
11.8494
11.846
1
1
1
1
1
1
1
1
1
1
1
1
1
1
1
1
1
1
1
1
1
1
1
1
1
1
1
1
1
1
1
1
1
1
1
1
1
1
1
1
1
1
1
1
1
1
1
1
1
1
1
1
1
1
1
1
1
1
1
1
1
1
1
1
1
1
1
1
1
1
1
1
1
1
1
1
1
1
1
1
1
1
1
1
1
1
1
1
1
1
1
1
1
1
1
1
1
1
1
3.21326
9.56931
10.3143
10.3415
10.3773
10.4079
10.4399
10.4757
10.5077
10.5331
10.5568
10.5842
10.6147
10.6445
10.673
10.6984
10.7191
10.7371
10.7576
10.7831
10.8097
10.8371
10.8658
10.8941
10.9208
10.947
10.9727
10.9947
11.0135
11.0301
11.0465
11.0642
11.0851
11.1097
11.1359
11.1599
11.181
11.1996
11.2177
11.2384
11.2633
11.2898
11.3128
11.3289
11.3351
11.3363
11.3396
11.3527
11.3804
11.4158
11.4477
11.4705
11.4843
11.4937
11.5048
11.5207
11.5397
11.5569
11.5691
11.577
11.5837
11.5923
11.605
11.622
11.6427
11.6655
11.6877
11.7049
11.7126
11.7096
11.7043
11.7039
11.7158
11.7416
11.7715
11.792
11.7967
11.7887
11.7791
11.7749
11.7785
11.7878
11.7995
11.8113
11.8231
11.8347
11.8448
11.8493
11.8471
11.8421
11.8363
11.8329
11.8307
1
1
1
1
1
1
1
1
1
1
1
1
1
1
1
1
1
1
1
1
1
1
1
1
1
1
1
1
1
1
1
1
1
1
1
1
1
1
1
1
1
1
1
1
1
1
1
1
1
1
1
1
1
1
1
1
1
1
1
1
1
1
1
1
1
1
1
1
1
1
1
1
1
1
1
1
1
1
1
1
1
1
1
1
1
1
1
1
1
1
1
1
1
1
1
1
1
1
1
2.7286
9.28965
10.3254
10.3531
10.379
10.4052
10.4358
10.4704
10.5011
10.527
10.5511
10.5779
10.6076
10.6363
10.6634
10.6883
10.7096
10.7286
10.7505
10.7766
10.8028
10.8286
10.8552
10.8816
10.9081
10.9371
10.9666
10.991
11.0095
11.023
11.0337
11.0466
11.0662
11.0944
11.1268
11.1558
11.1781
11.1937
11.2066
11.2228
11.2464
11.2751
11.3018
11.3191
11.3235
11.3218
11.3235
11.3387
11.3705
11.4083
11.4397
11.4588
11.4675
11.4732
11.484
11.5032
11.5264
11.5458
11.5569
11.5615
11.5647
11.5719
11.586
11.6063
11.63
11.6533
11.673
11.6866
11.6921
11.6893
11.6857
11.6876
11.7013
11.7275
11.7556
11.7733
11.7762
11.7687
11.7609
11.7592
11.7645
11.7739
11.784
11.7937
11.8043
11.8156
11.8261
11.8309
11.8285
11.8234
11.8181
11.8157
11.8144
1
1
1
1
1
1
1
1
1
1
1
1
1
1
1
1
1
1
1
1
1
1
1
1
1
1
1
1
1
1
1
1
1
1
1
1
1
1
1
1
1
1
1
1
1
1
1
1
1
1
1
1
1
1
1
1
1
1
1
1
1
1
1
1
1
1
1
1
1
1
1
1
1
1
1
1
1
1
1
1
1
1
1
1
1
1
1
1
1
1
1
1
1
1
1
1
1
1
1
2.29304
8.93788
10.345
10.3583
10.379
10.4018
10.4299
10.4619
10.4924
10.5196
10.5437
10.5704
10.5998
10.6272
10.6539
10.6791
10.7006
10.7206
10.7429
10.7691
10.7948
10.8192
10.8446
10.8699
10.8961
10.9269
10.9586
10.9845
11.003
11.0144
11.0211
11.0311
11.0513
11.0811
11.1163
11.1484
11.1717
11.1852
11.1954
11.2097
11.2319
11.2604
11.2877
11.3047
11.3093
11.3091
11.3134
11.3311
11.3626
11.3974
11.4251
11.4412
11.4482
11.4545
11.4674
11.4887
11.5127
11.5316
11.5413
11.5441
11.5458
11.5526
11.5681
11.5908
11.6163
11.6396
11.6569
11.6669
11.6701
11.6679
11.6665
11.6714
11.6872
11.7124
11.7374
11.7518
11.7539
11.7482
11.743
11.7439
11.7503
11.7588
11.7667
11.7747
11.7842
11.7955
11.8061
11.8109
11.8087
11.8038
11.7992
11.7979
11.7975
1
1
1
1
1
1
1
1
1
1
1
1
1
1
1
1
1
1
1
1
1
1
1
1
1
1
1
1
1
1
1
1
1
1
1
1
1
1
1
1
1
1
1
1
1
1
1
1
1
1
1
1
1
1
1
1
1
1
1
1
1
1
1
1
1
1
1
1
1
1
1
1
1
1
1
1
1
1
1
1
1
1
1
1
1
1
1
1
1
1
1
1
1
1
1
1
1
1
1
1.90687
8.51565
10.3534
10.3604
10.3787
10.3978
10.4239
10.4536
10.4838
10.5112
10.5348
10.5618
10.5905
10.618
10.6443
10.6695
10.6918
10.7125
10.7348
10.7606
10.7866
10.8109
10.8356
10.8604
10.887
10.9173
10.9478
10.9727
10.9915
11.0034
11.0103
11.021
11.0423
11.0719
11.1051
11.1365
11.1594
11.173
11.1844
11.1997
11.2206
11.2462
11.2702
11.2857
11.2932
11.2988
11.3087
11.3276
11.3545
11.382
11.404
11.4189
11.4288
11.4396
11.4556
11.4764
11.4975
11.5135
11.5221
11.5252
11.5276
11.5353
11.5516
11.575
11.6009
11.6235
11.6388
11.6461
11.6474
11.6461
11.6473
11.6554
11.6728
11.6957
11.7164
11.728
11.73
11.7273
11.7257
11.729
11.7357
11.7419
11.7476
11.7542
11.7633
11.7745
11.7849
11.7894
11.7873
11.7829
11.7794
11.7794
11.78
1
1
1
1
1
1
1
1
1
1
1
1
1
1
1
1
1
1
1
1
1
1
1
1
1
1
1
1
1
1
1
1
1
1
1
1
1
1
1
1
1
1
1
1
1
1
1
1
1
1
1
1
1
1
1
1
1
1
1
1
1
1
1
1
1
1
1
1
1
1
1
1
1
1
1
1
1
1
1
1
1
1
1
1
1
1
1
1
1
1
1
1
1
1
1
1
1
1
1
1.5736
8.04354
10.3707
10.3537
10.3711
10.3883
10.4132
10.4418
10.4723
10.5003
10.5251
10.5529
10.5803
10.6067
10.6328
10.658
10.6815
10.7034
10.7265
10.7515
10.7763
10.802
10.8284
10.8542
10.8807
10.9088
10.935
10.9558
10.9737
10.9885
11.0003
11.0162
11.04
11.0675
11.0949
11.1209
11.1413
11.1568
11.1727
11.1911
11.2111
11.2324
11.2512
11.2645
11.2767
11.2906
11.3065
11.3246
11.344
11.3622
11.3789
11.3951
11.4114
11.4287
11.4467
11.4643
11.4798
11.4919
11.5001
11.5054
11.5107
11.52
11.5361
11.5585
11.5833
11.6048
11.6188
11.6245
11.6247
11.6244
11.6283
11.6395
11.6572
11.6768
11.6928
11.7021
11.7054
11.7065
11.7093
11.7145
11.7195
11.7228
11.7264
11.7323
11.7415
11.7528
11.7626
11.7664
11.7643
11.7607
11.7587
11.7601
11.7618
1
1
1
1
1
1
1
1
1
1
1
1
1
1
1
1
1
1
1
1
1
1
1
1
1
1
1
1
1
1
1
1
1
1
1
1
1
1
1
1
1
1
1
1
1
1
1
1
1
1
1
1
1
1
1
1
1
1
1
1
1
1
1
1
1
1
1
1
1
1
1
1
1
1
1
1
1
1
1
1
1
1
1
1
1
1
1
1
1
1
1
1
1
1
1
1
1
1
1
1.28761
7.4951
10.3606
10.3544
10.3685
10.3853
10.4076
10.4326
10.4595
10.4851
10.5105
10.5396
10.5685
10.5958