/*--------------------------------*- C++ -*----------------------------------*\
  =========                 |
  \\      /  F ield         | OpenFOAM: The Open Source CFD Toolbox
   \\    /   O peration     | Website:  https://openfoam.org
    \\  /    A nd           | Version:  7
     \\/     M anipulation  |
\*---------------------------------------------------------------------------*/
FoamFile
{
    version     2.0;
    format      ascii;
    class       volScalarField;
    location    "3.3";
    object      rho;
}
// * * * * * * * * * * * * * * * * * * * * * * * * * * * * * * * * * * * * * //

dimensions      [1 -3 0 0 0 0 0];

internalField   nonuniform List<scalar> 
258048
(
1.40001
1.40001
1.40001
1.40001
1.40001
1.40001
1.40001
1.40001
1.40001
1.40001
1.40001
1.40001
1.40001
1.40001
1.40001
1.40001
1.40001
1.40001
1.40001
1.40001
1.40001
1.40001
1.40001
1.40001
1.40001
1.40001
1.40001
1.40001
1.40001
1.40001
1.40001
1.40001
1.40001
1.40001
1.40001
1.40001
1.40001
1.40001
1.40001
1.40001
1.40001
1.40001
1.40001
1.40001
1.40001
1.40001
1.40001
1.40001
1.40001
1.40001
1.40001
1.40001
1.40001
1.40001
1.40001
1.40001
1.40001
1.40001
1.40001
1.40001
1.40001
1.40001
1.40001
1.40001
1.40001
1.40001
1.40001
1.40001
1.40001
1.40001
1.40001
1.40001
1.40001
1.40001
1.40001
1.40001
1.40001
1.40001
1.40001
1.40001
1.40001
1.40001
1.40001
1.40001
1.40001
1.40001
1.40001
1.40001
1.40001
1.40001
1.40001
1.40001
1.40001
1.40001
1.40001
1.40001
1.40001
1.40001
2.53218
5.1076
5.40295
5.4205
5.44578
5.46452
5.4758
5.47709
5.47269
5.46657
5.47354
5.4972
5.5241
5.54792
5.56736
5.57633
5.57175
5.56099
5.55578
5.57243
5.5981
5.62277
5.6437
5.65511
5.65307
5.64626
5.64329
5.65352
5.67255
5.6925
5.70827
5.71489
5.71353
5.71092
5.71285
5.72335
5.74142
5.76103
5.77637
5.7836
5.7846
5.78511
5.78826
5.79565
5.80671
5.81887
5.82889
5.83513
5.83923
5.84365
5.85035
5.85963
5.86934
5.87669
5.8808
5.88373
5.8878
5.89426
5.90284
5.91162
5.91855
5.92277
5.92552
5.92927
5.93483
5.94143
5.94736
5.95135
5.95381
5.95642
5.96081
5.96705
5.97358
5.97918
5.98378
5.98736
5.99045
5.99372
5.99682
5.99813
5.99695
5.9949
5.99413
5.99592
5.99952
6.00308
6.00494
6.00511
6.00447
6.00318
6.00099
5.99805
5.99457
5.99131
1.40001
1.40001
1.40001
1.40001
1.40001
1.40001
1.40001
1.40001
1.40001
1.40001
1.40001
1.40001
1.40001
1.40001
1.40001
1.40001
1.40001
1.40001
1.40001
1.40001
1.40001
1.40001
1.40001
1.40001
1.40001
1.40001
1.40001
1.40001
1.40001
1.40001
1.40001
1.40001
1.40001
1.40001
1.40001
1.40001
1.40001
1.40001
1.40001
1.40001
1.40001
1.40001
1.40001
1.40001
1.40001
1.40001
1.40001
1.40001
1.40001
1.40001
1.40001
1.40001
1.40001
1.40001
1.40001
1.40001
1.40001
1.40001
1.40001
1.40001
1.40001
1.40001
1.40001
1.40001
1.40001
1.40001
1.40001
1.40001
1.40001
1.40001
1.40001
1.40001
1.40001
1.40001
1.40001
1.40001
1.40001
1.40001
1.40001
1.40001
1.40001
1.40001
1.40001
1.40001
1.40001
1.40001
1.40001
1.40001
1.40001
1.40001
1.40001
1.40001
1.40001
1.40001
1.40001
1.40001
1.40001
1.40001
2.52075
5.10979
5.40248
5.41871
5.44251
5.46053
5.47238
5.47647
5.47535
5.47288
5.47779
5.49903
5.52343
5.54561
5.56357
5.57237
5.57033
5.56337
5.55916
5.57384
5.59858
5.62216
5.6427
5.65347
5.65219
5.6465
5.64437
5.65365
5.67204
5.69124
5.70651
5.71326
5.71292
5.71161
5.7146
5.72588
5.74356
5.76203
5.77601
5.78217
5.78282
5.78352
5.78729
5.79553
5.80727
5.81962
5.82924
5.83473
5.83824
5.84247
5.84958
5.85965
5.87002
5.87746
5.88099
5.88326
5.88695
5.89347
5.90256
5.91191
5.91904
5.92282
5.92479
5.92802
5.93363
5.94097
5.94792
5.95269
5.95514
5.95683
5.95981
5.96515
5.97199
5.97876
5.98441
5.98838
5.99094
5.99318
5.99567
5.9972
5.99675
5.9953
5.99443
5.99547
5.99839
6.00202
6.00467
6.00563
6.00506
6.00325
6.00048
5.99727
5.99432
5.99182
1.40001
1.40001
1.40001
1.40001
1.40001
1.40001
1.40001
1.40001
1.40001
1.40001
1.40001
1.40001
1.40001
1.40001
1.40001
1.40001
1.40001
1.40001
1.40001
1.40001
1.40001
1.40001
1.40001
1.40001
1.40001
1.40001
1.40001
1.40001
1.40001
1.40001
1.40001
1.40001
1.40001
1.40001
1.40001
1.40001
1.40001
1.40001
1.40001
1.40001
1.40001
1.40001
1.40001
1.40001
1.40001
1.40001
1.40001
1.40001
1.40001
1.40001
1.40001
1.40001
1.40001
1.40001
1.40001
1.40001
1.40001
1.40001
1.40001
1.40001
1.40001
1.40001
1.40001
1.40001
1.40001
1.40001
1.40001
1.40001
1.40001
1.40001
1.40001
1.40001
1.40001
1.40001
1.40001
1.40001
1.40001
1.40001
1.40001
1.40001
1.40001
1.40001
1.40001
1.40001
1.40001
1.40001
1.40001
1.40001
1.40001
1.40001
1.40001
1.40001
1.40001
1.40001
1.40001
1.40001
1.40001
1.40001
2.49754
5.11371
5.40505
5.41785
5.43854
5.45523
5.46777
5.47417
5.47646
5.47865
5.485
5.50222
5.52333
5.5432
5.55884
5.56723
5.56786
5.56522
5.56378
5.57693
5.5992
5.62203
5.64099
5.65079
5.65061
5.64663
5.64596
5.65477
5.67215
5.69019
5.70437
5.7107
5.71117
5.7113
5.71615
5.72898
5.74659
5.76388
5.77608
5.78061
5.78059
5.78127
5.78564
5.79499
5.80781
5.82067
5.82989
5.83437
5.83699
5.8408
5.84828
5.85934
5.87068
5.87848
5.88141
5.88279
5.8858
5.89211
5.9018
5.9121
5.91977
5.92312
5.92411
5.92651
5.93182
5.9398
5.94805
5.95407
5.95692
5.95784
5.95913
5.96281
5.96938
5.97736
5.98458
5.98954
5.99196
5.99308
5.99421
5.99555
5.99617
5.99575
5.99505
5.99527
5.99709
6.00032
6.00376
6.00576
6.00568
6.00348
5.99996
5.99626
5.9937
5.99213
1.40001
1.40001
1.40001
1.40001
1.40001
1.40001
1.40001
1.40001
1.40001
1.40001
1.40001
1.40001
1.40001
1.40001
1.40001
1.40001
1.40001
1.40001
1.40001
1.40001
1.40001
1.40001
1.40001
1.40001
1.40001
1.40001
1.40001
1.40001
1.40001
1.40001
1.40001
1.40001
1.40001
1.40001
1.40001
1.40001
1.40001
1.40001
1.40001
1.40001
1.40001
1.40001
1.40001
1.40001
1.40001
1.40001
1.40001
1.40001
1.40001
1.40001
1.40001
1.40001
1.40001
1.40001
1.40001
1.40001
1.40001
1.40001
1.40001
1.40001
1.40001
1.40001
1.40001
1.40001
1.40001
1.40001
1.40001
1.40001
1.40001
1.40001
1.40001
1.40001
1.40001
1.40001
1.40001
1.40001
1.40001
1.40001
1.40001
1.40001
1.40001
1.40001
1.40001
1.40001
1.40001
1.40001
1.40001
1.40001
1.40001
1.40001
1.40001
1.40001
1.40001
1.40001
1.40001
1.40001
1.40001
1.40001
2.46877
5.10965
5.40678
5.41681
5.43412
5.45004
5.4639
5.4735
5.47953
5.48424
5.49159
5.5049
5.52224
5.53944
5.5535
5.56253
5.56651
5.56754
5.56927
5.58084
5.59988
5.62054
5.63791
5.64741
5.64884
5.64677
5.64762
5.65634
5.6724
5.68905
5.70186
5.70789
5.70951
5.71148
5.71871
5.73294
5.75017
5.76582
5.77571
5.77833
5.77772
5.77851
5.78377
5.79455
5.80858
5.82182
5.83031
5.83362
5.83542
5.83888
5.84687
5.85915
5.87141
5.87937
5.88168
5.88218
5.88451
5.8905
5.90073
5.91206
5.92013
5.92298
5.92318
5.92493
5.93008
5.93872
5.9483
5.95552
5.95858
5.95862
5.95836
5.96041
5.96649
5.9756
5.98452
5.99044
5.99272
5.99279
5.99263
5.9937
5.99521
5.99575
5.99526
5.99478
5.99564
5.99847
6.00273
6.00585
6.00616
6.00354
5.99927
5.99526
5.99309
5.99237
1.40001
1.40001
1.40001
1.40001
1.40001
1.40001
1.40001
1.40001
1.40001
1.40001
1.40001
1.40001
1.40001
1.40001
1.40001
1.40001
1.40001
1.40001
1.40001
1.40001
1.40001
1.40001
1.40001
1.40001
1.40001
1.40001
1.40001
1.40001
1.40001
1.40001
1.40001
1.40001
1.40001
1.40001
1.40001
1.40001
1.40001
1.40001
1.40001
1.40001
1.40001
1.40001
1.40001
1.40001
1.40001
1.40001
1.40001
1.40001
1.40001
1.40001
1.40001
1.40001
1.40001
1.40001
1.40001
1.40001
1.40001
1.40001
1.40001
1.40001
1.40001
1.40001
1.40001
1.40001
1.40001
1.40001
1.40001
1.40001
1.40001
1.40001
1.40001
1.40001
1.40001
1.40001
1.40001
1.40001
1.40001
1.40001
1.40001
1.40001
1.40001
1.40001
1.40001
1.40001
1.40001
1.40001
1.40001
1.40001
1.40001
1.40001
1.40001
1.40001
1.40001
1.40001
1.40001
1.40001
1.40001
1.40001
2.43541
5.09656
5.40852
5.41581
5.43056
5.44632
5.46154
5.47336
5.48178
5.4878
5.49502
5.50608
5.52054
5.53569
5.54916
5.55915
5.56552
5.5695
5.57405
5.58436
5.6006
5.61886
5.63457
5.64392
5.6467
5.64662
5.64921
5.65819
5.67315
5.68841
5.69987
5.70544
5.70797
5.71162
5.72107
5.73642
5.75333
5.76743
5.77511
5.77602
5.77486
5.77574
5.7819
5.7941
5.80908
5.82252
5.83033
5.83268
5.83397
5.83726
5.84561
5.8587
5.87158
5.8796
5.88153
5.88152
5.88341
5.88913
5.8995
5.91133
5.91961
5.92219
5.92213
5.92361
5.92874
5.93797
5.94848
5.95627
5.95935
5.95878
5.95766
5.95875
5.96421
5.97376
5.98388
5.99064
5.99291
5.99237
5.99146
5.99212
5.9939
5.99505
5.99482
5.99407
5.99435
5.99683
6.00151
6.00542
6.00607
6.00319
5.99848
5.99432
5.99244
5.99228
1.40001
1.40001
1.40001
1.40001
1.40001
1.40001
1.40001
1.40001
1.40001
1.40001
1.40001
1.40001
1.40001
1.40001
1.40001
1.40001
1.40001
1.40001
1.40001
1.40001
1.40001
1.40001
1.40001
1.40001
1.40001
1.40001
1.40001
1.40001
1.40001
1.40001
1.40001
1.40001
1.40001
1.40001
1.40001
1.40001
1.40001
1.40001
1.40001
1.40001
1.40001
1.40001
1.40001
1.40001
1.40001
1.40001
1.40001
1.40001
1.40001
1.40001
1.40001
1.40001
1.40001
1.40001
1.40001
1.40001
1.40001
1.40001
1.40001
1.40001
1.40001
1.40001
1.40001
1.40001
1.40001
1.40001
1.40001
1.40001
1.40001
1.40001
1.40001
1.40001
1.40001
1.40001
1.40001
1.40001
1.40001
1.40001
1.40001
1.40001
1.40001
1.40001
1.40001
1.40001
1.40001
1.40001
1.40001
1.40001
1.40001
1.40001
1.40001
1.40001
1.40001
1.40001
1.40001
1.40001
1.40001
1.40001
2.39682
5.07649
5.40747
5.41335
5.42731
5.44371
5.4606
5.4743
5.48419
5.49075
5.49708
5.50622
5.51849
5.53251
5.54619
5.55745
5.56564
5.57147
5.57732
5.58672
5.60066
5.61672
5.63091
5.6401
5.64429
5.64647
5.65089
5.66018
5.67414
5.68804
5.69832
5.70363
5.70698
5.71203
5.72312
5.73891
5.75522
5.768
5.77401
5.77388
5.77245
5.77364
5.78057
5.79361
5.80895
5.8223
5.82963
5.83161
5.83288
5.83642
5.84503
5.85806
5.87083
5.87871
5.88059
5.88063
5.88259
5.88844
5.89859
5.90999
5.91802
5.92056
5.92074
5.92268
5.92831
5.93795
5.94852
5.95601
5.95877
5.95802
5.95681
5.95784
5.96309
5.97231
5.98243
5.98958
5.99223
5.99179
5.99081
5.99111
5.99252
5.99363
5.99359
5.99301
5.99334
5.99577
6.0003
6.00425
6.00512
6.00232
5.99767
5.99359
5.99187
5.99183
1.40001
1.40001
1.40001
1.40001
1.40001
1.40001
1.40001
1.40001
1.40001
1.40001
1.40001
1.40001
1.40001
1.40001
1.40001
1.40001
1.40001
1.40001
1.40001
1.40001
1.40001
1.40001
1.40001
1.40001
1.40001
1.40001
1.40001
1.40001
1.40001
1.40001
1.40001
1.40001
1.40001
1.40001
1.40001
1.40001
1.40001
1.40001
1.40001
1.40001
1.40001
1.40001
1.40001
1.40001
1.40001
1.40001
1.40001
1.40001
1.40001
1.40001
1.40001
1.40001
1.40001
1.40001
1.40001
1.40001
1.40001
1.40001
1.40001
1.40001
1.40001
1.40001
1.40001
1.40001
1.40001
1.40001
1.40001
1.40001
1.40001
1.40001
1.40001
1.40001
1.40001
1.40001
1.40001
1.40001
1.40001
1.40001
1.40001
1.40001
1.40001
1.40001
1.40001
1.40001
1.40001
1.40001
1.40001
1.40001
1.40001
1.40001
1.40001
1.40001
1.40001
1.40001
1.40001
1.40001
1.40001
1.40001
2.35019
5.0525
5.40486
5.40996
5.4241
5.44141
5.45972
5.47481
5.48572
5.49276
5.49851
5.50632
5.51712
5.53041
5.54423
5.55643
5.56601
5.57326
5.57975
5.58833
5.60018
5.6141
5.62685
5.63615
5.64214
5.64679
5.65308
5.66246
5.67501
5.68728
5.69655
5.70204
5.70646
5.71296
5.725
5.74031
5.75573
5.76744
5.77239
5.77197
5.77072
5.77253
5.78006
5.79325
5.80823
5.82103
5.82812
5.83041
5.8322
5.83639
5.84526
5.85773
5.86956
5.87671
5.87866
5.87936
5.88196
5.8884
5.89835
5.90858
5.91548
5.91791
5.91881
5.92186
5.92872
5.93877
5.94859
5.95484
5.95677
5.95606
5.95546
5.95724
5.96283
5.97148
5.98062
5.98737
5.99052
5.99088
5.99043
5.9905
5.99108
5.99162
5.99168
5.99167
5.99264
5.99526
5.99926
6.00261
6.00333
6.00094
5.99688
5.99313
5.99136
5.99099
1.40001
1.40001
1.40001
1.40001
1.40001
1.40001
1.40001
1.40001
1.40001
1.40001
1.40001
1.40001
1.40001
1.40001
1.40001
1.40001
1.40001
1.40001
1.40001
1.40001
1.40001
1.40001
1.40001
1.40001
1.40001
1.40001
1.40001
1.40001
1.40001
1.40001
1.40001
1.40001
1.40001
1.40001
1.40001
1.40001
1.40001
1.40001
1.40001
1.40001
1.40001
1.40001
1.40001
1.40001
1.40001
1.40001
1.40001
1.40001
1.40001
1.40001
1.40001
1.40001
1.40001
1.40001
1.40001
1.40001
1.40001
1.40001
1.40001
1.40001
1.40001
1.40001
1.40001
1.40001
1.40001
1.40001
1.40001
1.40001
1.40001
1.40001
1.40001
1.40001
1.40001
1.40001
1.40001
1.40001
1.40001
1.40001
1.40001
1.40001
1.40001
1.40001
1.40001
1.40001
1.40001
1.40001
1.40001
1.40001
1.40001
1.40001
1.40001
1.40001
1.40001
1.40001
1.40001
1.40001
1.40001
1.40001
2.29579
5.02671
5.40121
5.40659
5.42118
5.43957
5.45928
5.47541
5.48677
5.49393
5.49931
5.50633
5.51623
5.52884
5.54276
5.55597
5.56694
5.57541
5.58211
5.58964
5.59942
5.61091
5.62227
5.6323
5.64082
5.64817
5.65595
5.66486
5.67539
5.6856
5.69403
5.70042
5.70648
5.71447
5.72665
5.74075
5.75481
5.76547
5.77014
5.77014
5.76984
5.77255
5.78045
5.7932
5.80703
5.81871
5.82567
5.82882
5.83166
5.83694
5.84618
5.85777
5.868
5.87385
5.87579
5.87744
5.88121
5.88864
5.8985
5.90738
5.9126
5.91442
5.91611
5.92072
5.92939
5.94021
5.94922
5.95369
5.95409
5.95311
5.95339
5.95657
5.96302
5.97127
5.97905
5.98475
5.98797
5.98934
5.9899
5.99
5.98969
5.98938
5.9894
5.99022
5.99212
5.99502
5.99821
6.00044
6.00079
5.9991
5.99602
5.99277
5.99076
5.98964
1.40001
1.40001
1.40001
1.40001
1.40001
1.40001
1.40001
1.40001
1.40001
1.40001
1.40001
1.40001
1.40001
1.40001
1.40001
1.40001
1.40001
1.40001
1.40001
1.40001
1.40001
1.40001
1.40001
1.40001
1.40001
1.40001
1.40001
1.40001
1.40001
1.40001
1.40001
1.40001
1.40001
1.40001
1.40001
1.40001
1.40001
1.40001
1.40001
1.40001
1.40001
1.40001
1.40001
1.40001
1.40001
1.40001
1.40001
1.40001
1.40001
1.40001
1.40001
1.40001
1.40001
1.40001
1.40001
1.40001
1.40001
1.40001
1.40001
1.40001
1.40001
1.40001
1.40001
1.40001
1.40001
1.40001
1.40001
1.40001
1.40001
1.40001
1.40001
1.40001
1.40001
1.40001
1.40001
1.40001
1.40001
1.40001
1.40001
1.40001
1.40001
1.40001
1.40001
1.40001
1.40001
1.40001
1.40001
1.40001
1.40001
1.40001
1.40001
1.40001
1.40001
1.40001
1.40001
1.40001
1.40001
1.40001
2.23247
4.9984
5.39925
5.40369
5.41837
5.43783
5.45877
5.47591
5.48777
5.49495
5.49975
5.50609
5.51536
5.52754
5.54184
5.55615
5.56839
5.5778
5.58449
5.59062
5.59802
5.60685
5.61734
5.6291
5.64064
5.65065
5.6594
5.66725
5.67528
5.6832
5.69092
5.69859
5.70666
5.71614
5.72815
5.74076
5.75285
5.76225
5.76714
5.76835
5.76963
5.77364
5.78172
5.79351
5.80569
5.81585
5.82236
5.82637
5.83063
5.83742
5.84732
5.85809
5.86664
5.87106
5.87259
5.87483
5.88
5.88874
5.89874
5.90651
5.9101
5.91092
5.91298
5.91916
5.92976
5.94151
5.9498
5.95262
5.95127
5.94957
5.95041
5.95518
5.963
5.97126
5.97784
5.98219
5.98499
5.9871
5.98867
5.98911
5.98832
5.98732
5.9872
5.98864
5.99141
5.99453
5.99688
5.99795
5.998
5.99708
5.99501
5.99238
5.99002
5.98793
1.40001
1.40001
1.40001
1.40001
1.40001
1.40001
1.40001
1.40001
1.40001
1.40001
1.40001
1.40001
1.40001
1.40001
1.40001
1.40001
1.40001
1.40001
1.40001
1.40001
1.40001
1.40001
1.40001
1.40001
1.40001
1.40001
1.40001
1.40001
1.40001
1.40001
1.40001
1.40001
1.40001
1.40001
1.40001
1.40001
1.40001
1.40001
1.40001
1.40001
1.40001
1.40001
1.40001
1.40001
1.40001
1.40001
1.40001
1.40001
1.40001
1.40001
1.40001
1.40001
1.40001
1.40001
1.40001
1.40001
1.40001
1.40001
1.40001
1.40001
1.40001
1.40001
1.40001
1.40001
1.40001
1.40001
1.40001
1.40001
1.40001
1.40001
1.40001
1.40001
1.40001
1.40001
1.40001
1.40001
1.40001
1.40001
1.40001
1.40001
1.40001
1.40001
1.40001
1.40001
1.40001
1.40001
1.40001
1.40001
1.40001
1.40001
1.40001
1.40001
1.40001
1.40001
1.40001
1.40001
1.40001
1.40001
2.16236
4.9636
5.39944
5.40302
5.41752
5.43731
5.45851
5.47595
5.48799
5.49519
5.49963
5.50545
5.51437
5.52631
5.54101
5.55629
5.56944
5.57947
5.58613
5.59105
5.59623
5.60275
5.61314
5.62723
5.64147
5.65355
5.66261
5.66897
5.67437
5.68025
5.68754
5.69658
5.7066
5.71744
5.72919
5.74035
5.75047
5.75856
5.76362
5.76646
5.76961
5.77515
5.78353
5.79417
5.80449
5.81284
5.81851
5.82308
5.82884
5.83738
5.84823
5.85859
5.86579
5.86885
5.86971
5.872
5.87808
5.88789
5.89817
5.90525
5.90778
5.90786
5.90998
5.91738
5.92971
5.94233
5.95012
5.95157
5.94883
5.94627
5.94719
5.95308
5.9624
5.97116
5.97692
5.97997
5.98198
5.98426
5.98663
5.98767
5.98685
5.98557
5.98531
5.98704
5.99027
5.9934
5.99511
5.99547
5.99541
5.9951
5.99388
5.99171
5.98897
5.98594
1.40001
1.40001
1.40001
1.40001
1.40001
1.40001
1.40001
1.40001
1.40001
1.40001
1.40001
1.40001
1.40001
1.40001
1.40001
1.40001
1.40001
1.40001
1.40001
1.40001
1.40001
1.40001
1.40001
1.40001
1.40001
1.40001
1.40001
1.40001
1.40001
1.40001
1.40001
1.40001
1.40001
1.40001
1.40001
1.40001
1.40001
1.40001
1.40001
1.40001
1.40001
1.40001
1.40001
1.40001
1.40001
1.40001
1.40001
1.40001
1.40001
1.40001
1.40001
1.40001
1.40001
1.40001
1.40001
1.40001
1.40001
1.40001
1.40001
1.40001
1.40001
1.40001
1.40001
1.40001
1.40001
1.40001
1.40001
1.40001
1.40001
1.40001
1.40001
1.40001
1.40001
1.40001
1.40001
1.40001
1.40001
1.40001
1.40001
1.40001
1.40001
1.40001
1.40001
1.40001
1.40001
1.40001
1.40001
1.40001
1.40001
1.40001
1.40001
1.40001
1.40001
1.40001
1.40001
1.40001
1.40001
1.40001
2.08646
4.92136
5.40223
5.40462
5.41875
5.43774
5.45802
5.47497
5.48674
5.4942
5.49898
5.50466
5.51341
5.52521
5.54003
5.55585
5.56944
5.5797
5.58632
5.59048
5.59429
5.59981
5.61086
5.62679
5.64284
5.65568
5.66443
5.6695
5.67274
5.67735
5.68473
5.69496
5.70646
5.71809
5.72948
5.73936
5.74783
5.7548
5.7599
5.7642
5.76938
5.77659
5.78539
5.79494
5.80337
5.80982
5.81451
5.81937
5.82646
5.83673
5.84853
5.85885
5.86514
5.86719
5.86756
5.8697
5.87595
5.88609
5.89649
5.90335
5.90557
5.90559
5.90788
5.91571
5.9288
5.94205
5.94968
5.95012
5.9466
5.94335
5.94406
5.95043
5.96086
5.97044
5.97597
5.97811
5.97926
5.98122
5.98403
5.98576
5.98537
5.98418
5.9838
5.98541
5.9885
5.99142
5.99284
5.99306
5.99319
5.99334
5.99252
5.99047
5.98737
5.98366
1.40001
1.40001
1.40001
1.40001
1.40001
1.40001
1.40001
1.40001
1.40001
1.40001
1.40001
1.40001
1.40001
1.40001
1.40001
1.40001
1.40001
1.40001
1.40001
1.40001
1.40001
1.40001
1.40001
1.40001
1.40001
1.40001
1.40001
1.40001
1.40001
1.40001
1.40001
1.40001
1.40001
1.40001
1.40001
1.40001
1.40001
1.40001
1.40001
1.40001
1.40001
1.40001
1.40001
1.40001
1.40001
1.40001
1.40001
1.40001
1.40001
1.40001
1.40001
1.40001
1.40001
1.40001
1.40001
1.40001
1.40001
1.40001
1.40001
1.40001
1.40001
1.40001
1.40001
1.40001
1.40001
1.40001
1.40001
1.40001
1.40001
1.40001
1.40001
1.40001
1.40001
1.40001
1.40001
1.40001
1.40001
1.40001
1.40001
1.40001
1.40001
1.40001
1.40001
1.40001
1.40001
1.40001
1.40001
1.40001
1.40001
1.40001
1.40001
1.40001
1.40001
1.40001
1.40001
1.40001
1.40001
1.40001
2.00612
4.87001
5.40778
5.40788
5.42118
5.43841
5.45687
5.47251
5.48375
5.49177
5.49769
5.50398
5.51269
5.52415
5.53871
5.55429
5.56762
5.57767
5.58446
5.58882
5.59293
5.59895
5.61117
5.62787
5.6439
5.6561
5.66402
5.66824
5.6705
5.6753
5.68329
5.69399
5.70592
5.71764
5.72861
5.73763
5.74502
5.75124
5.75644
5.76209
5.76917
5.77788
5.78702
5.79555
5.80221
5.8069
5.81069
5.81577
5.82396
5.83555
5.84808
5.85842
5.86415
5.86561
5.86579
5.86785
5.87384
5.8835
5.89353
5.90037
5.903
5.90377
5.90677
5.91478
5.92741
5.94044
5.94795
5.9483
5.94468
5.94132
5.94186
5.94808
5.95872
5.96876
5.97445
5.97621
5.97674
5.97818
5.98101
5.98329
5.98363
5.9828
5.98233
5.9835
5.98598
5.98857
5.99016
5.99082
5.99144
5.99183
5.99094
5.98864
5.98518
5.98116
1.40001
1.40001
1.40001
1.40001
1.40001
1.40001
1.40001
1.40001
1.40001
1.40001
1.40001
1.40001
1.40001
1.40001
1.40001
1.40001
1.40001
1.40001
1.40001
1.40001
1.40001
1.40001
1.40001
1.40001
1.40001
1.40001
1.40001
1.40001
1.40001
1.40001
1.40001
1.40001
1.40001
1.40001
1.40001
1.40001
1.40001
1.40001
1.40001
1.40001
1.40001
1.40001
1.40001
1.40001
1.40001
1.40001
1.40001
1.40001
1.40001
1.40001
1.40001
1.40001
1.40001
1.40001
1.40001
1.40001
1.40001
1.40001
1.40001
1.40001
1.40001
1.40001
1.40001
1.40001
1.40001
1.40001
1.40001
1.40001
1.40001
1.40001
1.40001
1.40001
1.40001
1.40001
1.40001
1.40001
1.40001
1.40001
1.40001
1.40001
1.40001
1.40001
1.40001
1.40001
1.40001
1.40001
1.40001
1.40001
1.40001
1.40001
1.40001
1.40001
1.40001
1.40001
1.40001
1.40001
1.40001
1.40001
1.92432
4.80794
5.4145
5.4118
5.42316
5.43818
5.45487
5.46941
5.48053
5.48936
5.49667
5.50372
5.51231
5.52291
5.53635
5.55081
5.56337
5.57321
5.58077
5.58679
5.59284
5.60065
5.61382
5.62968
5.64379
5.65428
5.6612
5.66524
5.66837
5.67458
5.68321
5.69356
5.70489
5.71613
5.72663
5.73529
5.74223
5.7481
5.75342
5.76012
5.76871
5.77847
5.78774
5.79535
5.80039
5.80361
5.80684
5.8124
5.82173
5.83422
5.84699
5.85701
5.86233
5.86373
5.86425
5.86663
5.8725
5.88124
5.89016
5.89661
5.89991
5.90209
5.90642
5.91484
5.9265
5.93781
5.94429
5.94498
5.94213
5.93949
5.9403
5.94622
5.95621
5.96592
5.97181
5.97382
5.97433
5.97555
5.9782
5.98074
5.98166
5.9812
5.9807
5.98122
5.98291
5.98522
5.9873
5.98881
5.99006
5.99044
5.98908
5.98625
5.98249
5.97849
1.40001
1.40001
1.40001
1.40001
1.40001
1.40001
1.40001
1.40001
1.40001
1.40001
1.40001
1.40001
1.40001
1.40001
1.40001
1.40001
1.40001
1.40001
1.40001
1.40001
1.40001
1.40001
1.40001
1.40001
1.40001
1.40001
1.40001
1.40001
1.40001
1.40001
1.40001
1.40001
1.40001
1.40001
1.40001
1.40001
1.40001
1.40001
1.40001
1.40001
1.40001
1.40001
1.40001
1.40001
1.40001
1.40001
1.40001
1.40001
1.40001
1.40001
1.40001
1.40001
1.40001
1.40001
1.40001
1.40001
1.40001
1.40001
1.40001
1.40001
1.40001
1.40001
1.40001
1.40001
1.40001
1.40001
1.40001
1.40001
1.40001
1.40001
1.40001
1.40001
1.40001
1.40001
1.40001
1.40001
1.40001
1.40001
1.40001
1.40001
1.40001
1.40001
1.40001
1.40001
1.40001
1.40001
1.40001
1.40001
1.40001
1.40001
1.40001
1.40001
1.40001
1.40001
1.40001
1.40001
1.40001
1.40001
1.84406
4.73417
5.42039
5.41557
5.42427
5.43733
5.45258
5.46649
5.4778
5.48736
5.49616
5.50426
5.51278
5.52228
5.53363
5.54615
5.55756
5.56727
5.5762
5.58487
5.59385
5.60421
5.61753
5.63123
5.6426
5.6505
5.65631
5.6613
5.66691
5.67494
5.68379
5.69314
5.70319
5.71349
5.72365
5.73249
5.73964
5.7456
5.75113
5.7585
5.768
5.77842
5.78773
5.79442
5.79806
5.80019
5.80326
5.80972
5.82041
5.83358
5.8458
5.85451
5.85881
5.86019
5.8616
5.86506
5.87143
5.87944
5.88688
5.89235
5.89616
5.90017
5.9064
5.91555
5.92617
5.93511
5.93995
5.94077
5.93917
5.93794
5.9395
5.94509
5.95373
5.96224
5.96801
5.97067
5.97183
5.97327
5.97572
5.97813
5.97923
5.97909
5.97859
5.97856
5.97959
5.98176
5.98452
5.98708
5.98881
5.98889
5.98687
5.98336
5.97939
5.97563
1.40001
1.40001
1.40001
1.40001
1.40001
1.40001
1.40001
1.40001
1.40001
1.40001
1.40001
1.40001
1.40001
1.40001
1.40001
1.40001
1.40001
1.40001
1.40001
1.40001
1.40001
1.40001
1.40001
1.40001
1.40001
1.40001
1.40001
1.40001
1.40001
1.40001
1.40001
1.40001
1.40001
1.40001
1.40001
1.40001
1.40001
1.40001
1.40001
1.40001
1.40001
1.40001
1.40001
1.40001
1.40001
1.40001
1.40001
1.40001
1.40001
1.40001
1.40001
1.40001
1.40001
1.40001
1.40001
1.40001
1.40001
1.40001
1.40001
1.40001
1.40001
1.40001
1.40001
1.40001
1.40001
1.40001
1.40001
1.40001
1.40001
1.40001
1.40001
1.40001
1.40001
1.40001
1.40001
1.40001
1.40001
1.40001
1.40001
1.40001
1.40001
1.40001
1.40001
1.40001
1.40001
1.40001
1.40001
1.40001
1.40001
1.40001
1.40001
1.40001
1.40001
1.40001
1.40001
1.40001
1.40001
1.40001
1.76527
4.64806
5.42496
5.41826
5.42441
5.43579
5.45003
5.46334
5.47483
5.48551
5.49597
5.50554
5.51411
5.52239
5.53147
5.54142
5.55103
5.56083
5.57181
5.58368
5.59598
5.6084
5.6207
5.63142
5.63924
5.64484
5.65078
5.65807
5.66659
5.67597
5.68425
5.69203
5.7005
5.70991
5.72016
5.72971
5.73751
5.74381
5.74955
5.7572
5.767
5.77762
5.78676
5.79251
5.79495
5.79631
5.79964
5.80747
5.81975
5.83358
5.84506
5.852
5.8547
5.85576
5.85814
5.8633
5.87084
5.87863
5.88465
5.88864
5.89222
5.89762
5.90583
5.91593
5.92552
5.93215
5.93504
5.93544
5.93526
5.93601
5.93886
5.94429
5.9513
5.95811
5.96344
5.967
5.96943
5.97166
5.97395
5.97568
5.97636
5.9762
5.97561
5.9753
5.97606
5.97831
5.98174
5.98523
5.98731
5.98694
5.9842
5.98006
5.976
5.97254
1.40001
1.40001
1.40001
1.40001
1.40001
1.40001
1.40001
1.40001
1.40001
1.40001
1.40001
1.40001
1.40001
1.40001
1.40001
1.40001
1.40001
1.40001
1.40001
1.40001
1.40001
1.40001
1.40001
1.40001
1.40001
1.40001
1.40001
1.40001
1.40001
1.40001
1.40001
1.40001
1.40001
1.40001
1.40001
1.40001
1.40001
1.40001
1.40001
1.40001
1.40001
1.40001
1.40001
1.40001
1.40001
1.40001
1.40001
1.40001
1.40001
1.40001
1.40001
1.40001
1.40001
1.40001
1.40001
1.40001
1.40001
1.40001
1.40001
1.40001
1.40001
1.40001
1.40001
1.40001
1.40001
1.40001
1.40001
1.40001
1.40001
1.40001
1.40001
1.40001
1.40001
1.40001
1.40001
1.40001
1.40001
1.40001
1.40001
1.40001
1.40001
1.40001
1.40001
1.40001
1.40001
1.40001
1.40001
1.40001
1.40001
1.40001
1.40001
1.40001
1.40001
1.40001
1.40001
1.40001
1.40001
1.40001
1.68916
4.55111
5.42908
5.42072
5.42532
5.43461
5.44744
5.46006
5.47184
5.48378
5.49587
5.50731
5.51675
5.52419
5.53099
5.53779
5.5452
5.55541
5.56876
5.58352
5.59816
5.61135
5.62231
5.62993
5.63456
5.63923
5.64662
5.65661
5.66727
5.67686
5.684
5.68996
5.697
5.70598
5.71685
5.72744
5.736
5.74258
5.74838
5.75607
5.76599
5.77661
5.78541
5.79032
5.79188
5.79275
5.79639
5.80546
5.81905
5.8333
5.84402
5.84916
5.8501
5.85046
5.85356
5.86075
5.87004
5.87809
5.88303
5.88559
5.88848
5.89452
5.90428
5.91537
5.92438
5.92922
5.93032
5.93007
5.93089
5.93378
5.93832
5.94375
5.94926
5.95421
5.95859
5.96273
5.96667
5.97012
5.97222
5.97288
5.97281
5.97232
5.97178
5.97165
5.97261
5.97524
5.97917
5.98322
5.9854
5.98457
5.98123
5.97664
5.97251
5.96923
1.40001
1.40001
1.40001
1.40001
1.40001
1.40001
1.40001
1.40001
1.40001
1.40001
1.40001
1.40001
1.40001
1.40001
1.40001
1.40001
1.40001
1.40001
1.40001
1.40001
1.40001
1.40001
1.40001
1.40001
1.40001
1.40001
1.40001
1.40001
1.40001
1.40001
1.40001
1.40001
1.40001
1.40001
1.40001
1.40001
1.40001
1.40001
1.40001
1.40001
1.40001
1.40001
1.40001
1.40001
1.40001
1.40001
1.40001
1.40001
1.40001
1.40001
1.40001
1.40001
1.40001
1.40001
1.40001
1.40001
1.40001
1.40001
1.40001
1.40001
1.40001
1.40001
1.40001
1.40001
1.40001
1.40001
1.40001
1.40001
1.40001
1.40001
1.40001
1.40001
1.40001
1.40001
1.40001
1.40001
1.40001
1.40001
1.40001
1.40001
1.40001
1.40001
1.40001
1.40001
1.40001
1.40001
1.40001
1.40001
1.40001
1.40001
1.40001
1.40001
1.40001
1.40001
1.40001
1.40001
1.40001
1.40001
1.61701
4.44647
5.4303
5.42281
5.42843
5.4354
5.4456
5.45671
5.4684
5.48166
5.49565
5.50868
5.51917
5.5264
5.53142
5.5356
5.5411
5.55175
5.56694
5.58345
5.59897
5.61186
5.62108
5.62594
5.62928
5.635
5.64473
5.6567
5.66816
5.677
5.6825
5.68679
5.69295
5.7022
5.71413
5.72581
5.735
5.74168
5.74729
5.75462
5.76421
5.77457
5.7832
5.78783
5.78923
5.79005
5.79389
5.80347
5.81757
5.8319
5.84202
5.84602
5.84578
5.84561
5.84912
5.85783
5.86868
5.87733
5.88176
5.88332
5.88543
5.89134
5.90171
5.9135
5.92244
5.92627
5.92624
5.92538
5.92658
5.93095
5.93696
5.9425
5.94684
5.95029
5.95377
5.95837
5.96383
5.96847
5.97044
5.97004
5.96882
5.96786
5.9675
5.96785
5.96947
5.97258
5.9767
5.98077
5.9828
5.98166
5.97802
5.97319
5.96893
5.9656
1.40001
1.40001
1.40001
1.40001
1.40001
1.40001
1.40001
1.40001
1.40001
1.40001
1.40001
1.40001
1.40001
1.40001
1.40001
1.40001
1.40001
1.40001
1.40001
1.40001
1.40001
1.40001
1.40001
1.40001
1.40001
1.40001
1.40001
1.40001
1.40001
1.40001
1.40001
1.40001
1.40001
1.40001
1.40001
1.40001
1.40001
1.40001
1.40001
1.40001
1.40001
1.40001
1.40001
1.40001
1.40001
1.40001
1.40001
1.40001
1.40001
1.40001
1.40001
1.40001
1.40001
1.40001
1.40001
1.40001
1.40001
1.40001
1.40001
1.40001
1.40001
1.40001
1.40001
1.40001
1.40001
1.40001
1.40001
1.40001
1.40001
1.40001
1.40001
1.40001
1.40001
1.40001
1.40001
1.40001
1.40001
1.40001
1.40001
1.40001
1.40001
1.40001
1.40001
1.40001
1.40001
1.40001
1.40001
1.40001
1.40001
1.40001
1.40001
1.40001
1.40001
1.40001
1.40001
1.40001
1.40001
1.40001
1.54944
4.33395
5.42175
5.4209
5.429
5.43578
5.44458
5.45412
5.46491
5.47847
5.49369
5.50826
5.52006
5.52782
5.53235
5.53518
5.53962
5.55046
5.56614
5.58276
5.59788
5.60971
5.61704
5.6206
5.62465
5.63284
5.64477
5.65753
5.66856
5.67593
5.67964
5.68279
5.68879
5.69889
5.71198
5.72455
5.73414
5.74075
5.74599
5.75265
5.76156
5.77151
5.78019
5.7852
5.7872
5.78849
5.79244
5.80157
5.81495
5.82867
5.8384
5.84216
5.84192
5.84206
5.84607
5.85525
5.86656
5.87561
5.88011
5.88142
5.88312
5.88847
5.89845
5.91016
5.91913
5.92281
5.92254
5.92153
5.92288
5.92799
5.93478
5.94025
5.94382
5.94647
5.9494
5.95428
5.96098
5.96642
5.96813
5.9669
5.96442
5.96287
5.96286
5.96394
5.96647
5.97005
5.97408
5.97775
5.9795
5.97829
5.97463
5.96974
5.96528
5.9617
1.40001
1.40001
1.40001
1.40001
1.40001
1.40001
1.40001
1.40001
1.40001
1.40001
1.40001
1.40001
1.40001
1.40001
1.40001
1.40001
1.40001
1.40001
1.40001
1.40001
1.40001
1.40001
1.40001
1.40001
1.40001
1.40001
1.40001
1.40001
1.40001
1.40001
1.40001
1.40001
1.40001
1.40001
1.40001
1.40001
1.40001
1.40001
1.40001
1.40001
1.40001
1.40001
1.40001
1.40001
1.40001
1.40001
1.40001
1.40001
1.40001
1.40001
1.40001
1.40001
1.40001
1.40001
1.40001
1.40001
1.40001
1.40001
1.40001
1.40001
1.40001
1.40001
1.40001
1.40001
1.40001
1.40001
1.40001
1.40001
1.40001
1.40001
1.40001
1.40001
1.40001
1.40001
1.40001
1.40001
1.40001
1.40001
1.40001
1.40001
1.40001
1.40001
1.40001
1.40001
1.40001
1.40001
1.40001
1.40001
1.40001
1.40001
1.40001
1.40001
1.40001
1.40001
1.40001
1.40001
1.40001
1.40001
1.47582
4.21218
5.41045
5.42062
5.42794
5.43601
5.44482
5.45322
5.46269
5.47525
5.49021
5.50537
5.51836
5.52733
5.53254
5.53547
5.54003
5.55056
5.56537
5.58083
5.59463
5.60501
5.61125
5.61531
5.62162
5.63229
5.64535
5.65796
5.66775
5.67332
5.67584
5.6787
5.68517
5.69624
5.71013
5.72317
5.73297
5.73949
5.74439
5.75026
5.75822
5.76753
5.77641
5.78233
5.78564
5.78796
5.79212
5.80007
5.81146
5.82354
5.83273
5.8372
5.83837
5.83997
5.84491
5.85372
5.86406
5.87256
5.87727
5.8791
5.88104
5.88603
5.89499
5.90575
5.91447
5.9186
5.91901
5.91858
5.9202
5.92534
5.93194
5.93686
5.93993
5.94242
5.94525
5.9504
5.95794
5.9638
5.96516
5.96327
5.9598
5.95777
5.95813
5.96007
5.96352
5.96748
5.9712
5.97424
5.97569
5.97456
5.97108
5.96618
5.96148
5.95762
1.40001
1.40001
1.40001
1.40001
1.40001
1.40001
1.40001
1.40001
1.40001
1.40001
1.40001
1.40001
1.40001
1.40001
1.40001
1.40001
1.40001
1.40001
1.40001
1.40001
1.40001
1.40001
1.40001
1.40001
1.40001
1.40001
1.40001
1.40001
1.40001
1.40001
1.40001
1.40001
1.40001
1.40001
1.40001
1.40001
1.40001
1.40001
1.40001
1.40001
1.40001
1.40001
1.40001