/*--------------------------------*- C++ -*----------------------------------*\
  =========                 |
  \\      /  F ield         | OpenFOAM: The Open Source CFD Toolbox
   \\    /   O peration     | Website:  https://openfoam.org
    \\  /    A nd           | Version:  7
     \\/     M anipulation  |
\*---------------------------------------------------------------------------*/
FoamFile
{
    version     2.0;
    format      ascii;
    class       volScalarField;
    location    "2.3";
    object      p;
}
// * * * * * * * * * * * * * * * * * * * * * * * * * * * * * * * * * * * * * //

dimensions      [1 -1 -2 0 0 0 0];

internalField   nonuniform List<scalar> 
64512
(
1
1
1
1
1
1
1
1
1
1
1
1
1
1
1
1
1
1
1
1
1
1
1
1
1
1
1
1
1
1
1
1
1
1
1
1
1
1
1
1
1
1
1
1
1
1
1
1
1
2.31027
9.05314
10.4837
10.5135
10.5685
10.6169
10.6692
10.7252
10.7878
10.8548
10.9208
10.9801
11.0312
11.0768
11.1216
11.1699
11.2223
11.2756
11.3255
11.368
11.4036
11.4357
11.4684
11.5075
11.554
11.6022
11.6445
11.6778
11.7046
11.7295
11.7571
11.7881
11.8205
11.8525
11.8825
11.9098
11.934
11.9551
11.9728
11.987
11.9993
12.0099
12.0198
12.0349
12.0501
12.0625
12.0729
1
1
1
1
1
1
1
1
1
1
1
1
1
1
1
1
1
1
1
1
1
1
1
1
1
1
1
1
1
1
1
1
1
1
1
1
1
1
1
1
1
1
1
1
1
1
1
1
1
2.28765
9.02102
10.477
10.5119
10.5681
10.6172
10.6692
10.7244
10.7861
10.8527
10.9192
10.9795
11.0314
11.0774
11.122
11.1696
11.221
11.274
11.3241
11.3672
11.4035
11.4359
11.4685
11.5068
11.552
11.5989
11.6404
11.674
11.7018
11.7277
11.7561
11.7871
11.819
11.8505
11.8802
11.9074
11.9315
11.9526
11.9701
11.9841
11.9961
12.0066
12.0163
12.0313
12.0467
12.0595
12.0701
1
1
1
1
1
1
1
1
1
1
1
1
1
1
1
1
1
1
1
1
1
1
1
1
1
1
1
1
1
1
1
1
1
1
1
1
1
1
1
1
1
1
1
1
1
1
1
1
1
2.22885
8.95883
10.4698
10.5035
10.5644
10.6153
10.6674
10.722
10.7825
10.8482
10.915
10.9762
11.0295
11.0766
11.1214
11.1684
11.2188
11.2708
11.3208
11.3644
11.4015
11.4346
11.4673
11.505
11.5484
11.5936
11.6342
11.6681
11.6971
11.7247
11.754
11.7852
11.8167
11.8476
11.8768
11.9037
11.9277
11.9487
11.9658
11.9793
11.9909
12.0009
12.0104
12.0255
12.0412
12.0546
12.0657
1
1
1
1
1
1
1
1
1
1
1
1
1
1
1
1
1
1
1
1
1
1
1
1
1
1
1
1
1
1
1
1
1
1
1
1
1
1
1
1
1
1
1
1
1
1
1
1
1
2.1444
8.87088
10.4621
10.4969
10.5602
10.6121
10.6643
10.7183
10.7776
10.8424
10.909
10.9707
11.0252
11.0737
11.1191
11.166
11.2157
11.2669
11.3166
11.3604
11.3981
11.432
11.4647
11.5016
11.543
11.5862
11.6258
11.6601
11.6906
11.7198
11.7501
11.7814
11.8124
11.8427
11.8715
11.8983
11.9222
11.9429
11.9595
11.9723
11.9833
11.9928
12.0019
12.017
12.033
12.0469
12.0584
1
1
1
1
1
1
1
1
1
1
1
1
1
1
1
1
1
1
1
1
1
1
1
1
1
1
1
1
1
1
1
1
1
1
1
1
1
1
1
1
1
1
1
1
1
1
1
1
1
2.04129
8.74911
10.4551
10.4906
10.5548
10.6074
10.6599
10.7141
10.7729
10.8367
10.9024
10.9638
11.0187
11.0682
11.1146
11.162
11.2116
11.2623
11.3116
11.355
11.3927
11.427
11.4596
11.496
11.5356
11.5772
11.616
11.6509
11.6827
11.7132
11.7441
11.7752
11.8058
11.8357
11.8644
11.8912
11.9151
11.9355
11.9515
11.9635
11.9738
11.9826
11.9914
12.0062
12.0223
12.0368
12.0484
1
1
1
1
1
1
1
1
1
1
1
1
1
1
1
1
1
1
1
1
1
1
1
1
1
1
1
1
1
1
1
1
1
1
1
1
1
1
1
1
1
1
1
1
1
1
1
1
1
1.91958
8.59186
10.4474
10.4842
10.5494
10.6024
10.6553
10.7098
10.7684
10.8313
10.896
10.9566
11.0114
11.0615
11.1086
11.1566
11.2064
11.2565
11.3053
11.348
11.3851
11.4192
11.452
11.4884
11.5272
11.5678
11.6061
11.6412
11.6737
11.7046
11.7352
11.7656
11.7956
11.8253
11.8544
11.8816
11.9057
11.9259
11.9414
11.9527
11.9624
11.9706
11.9791
11.9934
12.0094
12.024
12.0354
1
1
1
1
1
1
1
1
1
1
1
1
1
1
1
1
1
1
1
1
1
1
1
1
1
1
1
1
1
1
1
1
1
1
1
1
1
1
1
1
1
1
1
1
1
1
1
1
1
1.78226
8.39459
10.4397
10.4777
10.5437
10.5968
10.6499
10.7042
10.7625
10.8251
10.8891
10.949
11.0035
11.0537
11.1007
11.1487
11.1985
11.2483
11.297
11.3389
11.3758
11.4101
11.4429
11.479
11.517
11.5568
11.5947
11.63
11.6629
11.6937
11.7237
11.7532
11.7827
11.8126
11.8422
11.87
11.8943
11.9143
11.9292
11.94
11.9491
11.9569
11.9651
11.9787
11.994
12.0085
12.0193
1
1
1
1
1
1
1
1
1
1
1
1
1
1
1
1
1
1
1
1
1
1
1
1
1
1
1
1
1
1
1
1
1
1
1
1
1
1
1
1
1
1
1
1
1
1
1
1
1
1.63717
8.15309
10.433
10.471
10.5375
10.5905
10.6433
10.6974
10.7554
10.8175
10.8808
10.9403
10.9946
11.0447
11.0916
11.1393
11.1888
11.2386
11.2872
11.3293
11.366
11.4
11.432
11.4672
11.5044
11.5438
11.5818
11.6175
11.6506
11.681
11.7098
11.7381
11.7669
11.7968
11.8268
11.855
11.8795
11.8994
11.9142
11.9247
11.9338
11.9414
11.9495
11.9623
11.9765
11.9902
11.9999
1
1
1
1
1
1
1
1
1
1
1
1
1
1
1
1
1
1
1
1
1
1
1
1
1
1
1
1
1
1
1
1
1
1
1
1
1
1
1
1
1
1
1
1
1
1
1
1
1
1.48838
7.8655
10.4339
10.4661
10.5318
10.5839
10.6358
10.6895
10.7471
10.8085
10.8711
10.9302
10.9844
11.0345
11.0809
11.1277
11.1767
11.2264
11.2751
11.3173
11.3539
11.3877
11.4188
11.4533
11.4902
11.5296
11.568
11.6039
11.6368
11.6662
11.6935
11.7205
11.7485
11.7784
11.8088
11.8374
11.8621
11.8819
11.8966
11.9071
11.9162
11.9241
11.9321
11.9438
11.9565
11.9687
11.9769
1
1
1
1
1
1
1
1
1
1
1
1
1
1
1
1
1
1
1
1
1
1
1
1
1
1
1
1
1
1
1
1
1
1
1
1
1
1
1
1
1
1
1
1
1
1
1
1
1
1.33185
7.51691
10.4356
10.4602
10.5248
10.5765
10.627
10.6791
10.735
10.7956
10.8577
10.9165
10.9707
11.021
11.0674
11.1139
11.163
11.213
11.2617
11.3046
11.3413
11.3748
11.4046
11.4377
11.4738
11.5129
11.5515
11.5876
11.6202
11.6489
11.675
11.7009
11.7282
11.7578
11.7883
11.817
11.8416
11.861
11.8755
11.8862
11.896
11.9046
11.9129
11.9234
11.9341
11.9441
11.9506
1
1
1
1
1
1
1
1
1
1
1
1
1
1
1
1
1
1
1
1
1
1
1
1
1
1
1
1
1
1
1
1
1
1
1
1
1
1
1
1
1
1
1
1
1
1
1
1
1
1.16975
7.14287
10.4469
10.4645
10.5213
10.5717
10.6197
10.6703
10.7253
10.785
10.8462
10.9042
10.9581
11.0088
11.0554
11.1011
11.1487
11.1966
11.2434
11.286
11.3226
11.3562
11.3855
11.4183
11.4543
11.4936
11.5325
11.5688
11.6012
11.6292
11.6543
11.6791
11.7057
11.7348
11.7653
11.794
11.8183
11.8372
11.8513
11.8622
11.8727
11.8825
11.8915
11.9011
11.9097
11.9169
11.9214
1
1
1
1
1
1
1
1
1
1
1
1
1
1
1
1
1
1
1
1
1
1
1
1
1
1
1
1
1
1
1
1
1
1
1
1
1
1
1
1
1
1
1
1
1
1
1
1
1
1.0101
6.70973
10.4045
10.4458
10.4965
10.5512
10.6004
10.6503
10.704
10.7634
10.8243
10.882
10.936
10.9872
11.0347
11.0808
11.1289
11.177
11.2237
11.2669
11.3038
11.3378
11.3669
11.3994
11.435
11.4738
11.5124
11.5483
11.58
11.6071
11.6313
11.6551
11.6809
11.7093
11.7393
11.7677
11.7915
11.8098
11.8235
11.8344
11.846
11.8573
11.867
11.876
11.8825
11.8864
11.889
1
1
1
1
1
1
1
1
1
1
1
1
1
1
1
1
1
1
1
1
1
1
1
1
1
1
1
1
1
1
1
1
1
1
1
1
1
1
1
1
1
1
1
1
1
1
1
1
1
1.00009
6.16071
10.3304
10.4275
10.4783
10.5349
10.584
10.6335
10.6869
10.7462
10.8069
10.8643
10.9181
10.9694
11.0172
11.063
11.1106
11.1577
11.2032
11.2461
11.2829
11.317
11.3457
11.3772
11.4117
11.4495
11.4874
11.5229
11.5544
11.5814
11.6053
11.6284
11.6533
11.6809
11.7102
11.7382
11.7617
11.7796
11.7928
11.8038
11.8159
11.8285
11.8393
11.8481
11.8529
11.8536
11.8545
1
1
1
1
1
1
1
1
1
1
1
1
1
1
1
1
1
1
1
1
1
1
1
1
1
1
1
1
1
1
1
1
1
1
1
1
1
1
1
1
1
1
1
1
1
1
1
1
1
1
5.56326
10.2402
10.4045
10.4581
10.5165
10.5668
10.6164
10.6693
10.7279
10.7882
10.8452
10.8984
10.9494
10.9973
11.0427
11.09
11.1364
11.1809
11.2238
11.2609
11.2953
11.3241
11.3547
11.3879
11.4244
11.4613
11.4962
11.5273
11.5539
11.5773
11.5995
11.6233
11.6496
11.6779
11.7054
11.7288
11.7466
11.7597
11.7705
11.7825
11.7957
11.8074
11.8163
11.8201
11.8183
11.8181
1
1
1
1
1
1
1
1
1
1
1
1
1
1
1
1
1
1
1
1
1
1
1
1
1
1
1
1
1
1
1
1
1
1
1
1
1
1
1
1
1
1
1
1
1
1
1
1
1
1
4.93209
10.1191
10.3806
10.4377
10.4986
10.5501
10.6
10.6526
10.7105
10.7705
10.8273
10.8799
10.9303
10.9779
11.0226
11.0689
11.1142
11.1572
11.1996
11.2367
11.271
11.2998
11.3291
11.3607
11.3956
11.4315
11.4658
11.4968
11.5236
11.5469
11.5687
11.5915
11.6165
11.6434
11.6699
11.6927
11.7104
11.7233
11.7337
11.745
11.7581
11.7704
11.7797
11.7834
11.7803
11.7801
1
1
1
1
1
1
1
1
1
1
1
1
1
1
1
1
1
1
1
1
1
1
1
1
1
1
1
1
1
1
1
1
1
1
1
1
1
1
1
1
1
1
1
1
1
1
1
1
1
1
4.28036
9.95521
10.3609
10.4172
10.4795
10.5313
10.5812
10.6331
10.6901
10.7494
10.8059
10.8579
10.9078
10.9556
11.0002
11.0456
11.0902
11.132
11.1737
11.211
11.2452
11.2743
11.3023
11.3324
11.3655
11.4002
11.4338
11.4645
11.4911
11.5143
11.5354
11.557
11.5803
11.6054
11.6304
11.6526
11.6703
11.6835
11.694
11.7044
11.7166
11.7285
11.7378
11.7421
11.7391
11.7395
1
1
1
1
1
1
1
1
1
1
1
1
1
1
1
1
1
1
1
1
1
1
1
1
1
1
1
1
1
1
1
1
1
1
1
1
1
1
1
1
1
1
1
1
1
1
1
1
1
1
3.62601
9.72011
10.348
10.4014
10.464
10.5148
10.5638
10.6149
10.6706
10.7288
10.7847
10.8359
10.8844
10.9312
10.9751
11.0187
11.0624
11.1027
11.1436
11.1811
11.2152
11.2445
11.2713
11.2998
11.3315
11.3653
11.3985
11.4289
11.4555
11.4786
11.4993
11.52
11.5418
11.5648
11.5877
11.6085
11.6258
11.6393
11.6501
11.6596
11.6703
11.6812
11.6903
11.6957
11.6943
11.6962
1
1
1
1
1
1
1
1
1
1
1
1
1
1
1
1
1
1
1
1
1
1
1
1
1
1
1
1
1
1
1
1
1
1
1
1
1
1
1
1
1
1
1
1
1
1
1
1
1
1
3.00955
9.38128
10.3366
10.3844
10.448
10.4985
10.5474
10.598
10.6526
10.7095
10.7647
10.8151
10.8623
10.9082
10.9514
10.9929
11.0356
11.0749
11.1147
11.1518
11.1851
11.2143
11.2396
11.2663
11.2962
11.329
11.3616
11.3913
11.4172
11.4395
11.4596
11.4793
11.4997
11.5205
11.541
11.5598
11.5765
11.5904
11.602
11.6109
11.6199
11.6289
11.637
11.6433
11.6443
11.6481
1
1
1
1
1
1
1
1
1
1
1
1
1
1
1
1
1
1
1
1
1
1
1
1
1
1
1
1
1
1
1
1
1
1
1
1
1
1
1
1
1
1
1
1
1
1
1
1
1
1
2.42486
8.92274
10.3356
10.3796
10.4413
10.4868
10.5329
10.5804
10.6323
10.6878
10.7425
10.7926
10.839
10.8838
10.9264
10.9662
11.0075
11.0462
11.085
11.1218
11.1541
11.1828
11.2067
11.2315
11.2596
11.2913
11.3231
11.3518
11.3763
11.3974
11.4165
11.4354
11.4546
11.4734
11.4909
11.5068
11.522
11.5359
11.5481
11.5569
11.5644
11.5712
11.578
11.5851
11.5888
11.5949
1
1
1
1
1
1
1
1
1
1
1
1
1
1
1
1
1
1
1
1
1
1
1
1
1
1
1
1
1
1
1
1
1
1
1
1
1
1
1
1
1
1
1
1
1
1
1
1
1
1
1.85847
8.36618
10.3826
10.3715
10.425
10.4658
10.5098
10.5564
10.6078
10.6624
10.7167
10.767
10.8133
10.8576
10.8996
10.9381
10.9773
11.0156
11.0537
11.0904
11.122
11.1502
11.1728
11.1958
11.2221
11.2526
11.2834
11.3106
11.3332
11.3522
11.3698
11.3876
11.4058
11.4226
11.437
11.4496
11.4626
11.4761
11.4887
11.4976
11.5038
11.5082
11.5132
11.5201
11.5258
11.5334
1
1
1
1
1
1
1
1
1
1
1
1
1
1
1
1
1
1
1
1
1
1
1
1
1
1
1
1
1
1
1
1
1
1
1
1
1
1
1
1
1
1
1
1
1
1
1
1
1
1
1.35811
7.70159
10.4406
10.369
10.4048
10.4412
10.4819
10.5259
10.5757
10.6304
10.6858
10.7371
10.7837
10.8277
10.8693
10.9075
10.9447
10.9825
11.0197
11.0567
11.088
11.1155
11.1372
11.1586
11.1833
11.2122
11.2417
11.2672
11.2874
11.304
11.3196
11.3361
11.353
11.3679
11.3792
11.388
11.398
11.4099
11.422
11.4309
11.4363
11.4386
11.442
11.4485
11.4556
11.464
1
1
1
1
1
1
1
1
1
1
1
1
1
1
1
1
1
1
1
1
1
1
1
1
1
1
1
1
1
1
1
1
1
1
1
1
1
1
1
1
1
1
1
1
1
1
1
1
1
1
1.04014
6.98366
10.3393
10.3061
10.359
10.4039
10.4499
10.4963
10.5449
10.5969
10.6504
10.7017
10.7492
10.794
10.8361
10.8742
10.9096
10.9464
10.9827
11.0199
11.0513
11.0782
11.0995
11.1198
11.1426
11.1694
11.1971
11.2208
11.2386
11.2527
11.266
11.2807
11.2958
11.3087
11.3169
11.3221
11.3286
11.3382
11.3489
11.3576
11.362
11.3619
11.3633
11.3682
11.375
11.3828
1
1
1
1
1
1
1
1
1
1
1
1
1
1
1
1
1
1
1
1
1
1
1
1
1
1
1
1
1
1
1
1
1
1
1
1
1
1
1
1
1
1
1
1
1
1
1
1
1
1
1.00047
6.0446
10.1498
10.2564
10.3228
10.3788
10.4265
10.472
10.5185
10.5685
10.6199
10.6689
10.7142
10.7572
10.7984
10.8375
10.8728
10.908
10.9425
10.979
11.0109
11.0376
11.0589
11.0784
11.0994
11.1236
11.149
11.1708
11.1865
11.1981
11.2092
11.2212
11.2338
11.2442
11.2496
11.2512
11.2536
11.2595
11.2676
11.275
11.2777
11.2757
11.2753
11.2787
11.2847
11.2914
1
1
1
1
1
1
1
1
1
1
1
1
1
1
1
1
1
1
1
1
1
1
1
1
1
1
1
1
1
1
1
1
1
1
1
1
1
1
1
1
1
1
1
1
1
1
1
1
1
1
1
5.06878
9.9882
10.2009
10.2718
10.3406
10.3963
10.4461
10.4933
10.5408
10.59
10.6374
10.6808
10.7208
10.7601
10.7972
10.8315
10.8659
10.8994
10.9344
10.9665
10.9932
11.0149
11.0336
11.0527
11.074
11.0966
11.1165
11.1304
11.1401
11.1488
11.1574
11.1667
11.174
11.1765
11.1749
11.1731
11.1744
11.1792
11.1844
11.1848
11.1803
11.1767
11.1764
11.1797
11.1837
1
1
1
1
1
1
1
1
1
1
1
1
1
1
1
1
1
1
1
1
1
1
1
1
1
1
1
1
1
1
1
1
1
1
1
1
1
1
1
1
1
1
1
1
1
1
1
1
1
1
1
4.07685
9.66829
10.1705
10.2631
10.3292
10.3773
10.4205
10.4643
10.5095
10.5572
10.6029
10.6447
10.6833
10.7211
10.7593
10.793
10.8232
10.8535
10.8851
10.9174
10.9449
10.9671
10.9849
11.0021
11.02
11.0394
11.0572
11.0698
11.0785
11.0847
11.0893
11.0944
11.098
11.0974
11.0922
11.0854
11.0818
11.0814
11.0817
11.0782
11.0704
11.0632
11.0596
11.0605
11.0624
1
1
1
1
1
1
1
1
1
1
1
1
1
1
1
1
1
1
1
1
1
1
1
1
1
1
1
1
1
1
1
1
1
1
1
1
1
1
1
1
1
1
1
1
1
1
1
1
1
1
1
3.12585
9.22315
10.159
10.2327
10.3011
10.3538
10.4006
10.4424
10.4848
10.528
10.5705
10.6088
10.6442
10.6791
10.7149
10.7486
10.7788
10.8064
10.834
10.8641
10.8915
10.9146
10.9317
10.9467
10.9612
10.977
10.9925
11.0043
11.012
11.0154
11.0164
11.0169
11.0161
11.0119
11.0025
10.9902
10.9808
10.9742
10.9688
10.9607
10.9484
10.9351
10.9241
10.9187
10.9151
1
1
1
1
1
1
1
1
1
1
1
1
1
1
1
1
1
1
1
1
1
1
1
1
1
1
1
1
1
1
1
1
1
1
1
1
1
1
1
1
1
1
1
1
1
1
1
1
1
1
1
2.18406
8.5461
10.2632
10.256
10.3053
10.3394
10.3711
10.408
10.4516
10.4965
10.5401
10.5778
10.6103
10.6412
10.6735
10.7048
10.7326
10.7573
10.7813
10.808
10.8366
10.8575
10.8734
10.886
10.8975
10.9098
10.9228
10.9336
10.9399
10.9405
10.9381
10.934
10.9284
10.9197
10.9055
10.8871
10.8703
10.8554
10.8411
10.824
10.8031
10.7815
10.7636
10.753
10.7474
1
1
1
1
1
1
1
1
1
1
1
1
1
1
1
1
1
1
1
1
1
1
1
1
1
1
1
1
1
1
1
1
1
1
1
1
1
1
1
1
1
1
1
1
1
1
1
1
1
1
1
1.37716
7.7957
10.3709
10.2434
10.2514
10.2847
10.3291
10.3764
10.4206
10.464
10.5055
10.5424
10.5742
10.6035
10.633
10.6617
10.6878
10.7104
10.7314
10.7529
10.7762
10.7975
10.811
10.8205
10.8288
10.8378
10.848
10.8568
10.8612
10.8595
10.8536
10.8452
10.8345
10.8205
10.8006
10.7753
10.749
10.7237
10.6984
10.6715
10.6414
10.6089
10.5758
10.5492
10.5302
1
1
1
1
1
1
1
1
1
1
1
1
1
1
1
1
1
1
1
1
1
1
1
1
1
1
1
1
1
1
1
1
1
1
1
1
1
1
1
1
1
1
1
1
1
1
1
1
1
1
1
1.01825
6.8205
10.2192
10.1498
10.215
10.2594
10.2998
10.3386
10.3849
10.4299
10.4702
10.5065
10.5374
10.5648
10.5914
10.6176
10.642
10.6633
10.6822
10.7001
10.7185
10.7348
10.7458
10.7522
10.7573
10.763
10.7695
10.7749
10.7767
10.7723
10.7631
10.7502
10.7344
10.7144
10.6875
10.6537
10.6165
10.5786
10.5391
10.4954
10.4447
10.3885
10.3346
10.2924
10.2736
1
1
1
1
1
1
1
1
1
1
1
1
1
1
1
1
1
1
1
1
1
1
1
1
1
1
1
1
1
1
1
1
1
1
1
1
1
1
1
1
1
1
1
1
1
1
1
1
1
1
1
1.00003
5.52528
9.89693
10.0736
10.1559
10.2114
10.2659
10.3111
10.3518
10.3906
10.4294
10.4652
10.496
10.5229
10.5483
10.5726
10.5952
10.6149
10.6317
10.6463
10.6599
10.6726
10.6809
10.6836
10.6851
10.6863
10.6879
10.6889
10.6871
10.6791
10.6662
10.6488
10.6274
10.6004
10.5658
10.5222
10.4722
10.418
10.3595
10.294
10.2208
10.1406
10.0583
9.97108
9.89491
1
1
1
1
1
1
1
1
1
1
1
1
1
1
1
1
1
1
1
1
1
1
1
1
1
1
1
1
1
1
1
1
1
1
1
1
1
1
1
1
1
1
1
1
1
1
1
1
1
1
1
1
4.3196
9.61871
10.0278
10.1133
10.1859
10.24
10.2757
10.3077
10.3429
10.3807
10.4166
10.4488
10.4769
10.5022
10.5253
10.5462
10.5643
10.5794
10.5911
10.6005
10.6094
10.6153
10.6158
10.6133
10.6095
10.6053
10.6009
10.594
10.5817
10.5643
10.5418
10.5139
10.4792
10.4355
10.3806
10.3159
10.2427
10.1618
10.0689
9.95845
9.82066
9.65485
9.49045
9.3703
1
1
1
1
1
1
1
1
1
1
1
1
1
1
1
1
1
1
1
1
1
1
1
1
1
1
1
1
1
1
1
1
1
1
1
1
1
1
1
1
1
1
1
1
1
1
1
1
1
1
1
1
3.12749
9.04087
10.0074
10.1013
10.1804
10.2226
10.2508
10.2769
10.3053
10.3368
10.3696
10.4003
10.4274
10.4521
10.4745
10.4941
10.5106
10.524
10.534
10.5402
10.5456
10.5485
10.5471
10.5408
10.5316
10.5215
10.5113
10.4982
10.4806
10.4581
10.4294
10.3941
10.3508
10.2968
10.2292
10.1481
10.0533
9.94417
9.81288
9.65005
9.44826
9.20358
8.93861
8.76874
1
1
1
1
1
1
1
1
1
1
1
1
1
1
1
1
1
1
1
1
1
1
1
1
1
1
1
1
1
1
1
1
1
1
1
1
1
1
1
1
1
1
1
1
1
1
1
1
1
1
1
1
1.97589
8.28221
10.1605
10.1191
10.1484
10.1805
10.2129
10.2415
10.2699
10.2988
10.3266
10.3526
10.3769
10.3998
10.4209
10.439
10.4539
10.4659
10.4741
10.4784
10.4811
10.4814
10.4775
10.4673
10.4535
10.4376
10.4211
10.4014
10.378
10.3493
10.3136
10.27
10.2166
10.151
10.0694
9.97038
9.85133
9.71016
9.53744
9.31976
9.02574
8.58615
7.74907
5.79862
1
1
1
1
1
1
1
1
1
1
1
1
1
1
1
1
1
1
1
1
1
1
1
1
1
1
1
1
1
1
1
1
1
1
1
1
1
1
1
1
1
1
1
1
1
1
1
1
1
1
1
1
1.11641
7.23671
10.2484
10.1326
10.1088
10.1346
10.1742
10.2039
10.2313
10.2586
10.2855
10.3097
10.3305
10.3495
10.3676
10.3832
10.3957
10.4054
10.4117
10.4146
10.4152
10.4132
10.4063
10.3928
10.3743
10.3528
10.3296
10.3034
10.2731
10.2377
10.1946
10.142
10.0778
9.99956
9.90295
9.78488
9.64068
9.46534
9.24645
8.95736
8.55105
7.91115
6.94684
4.73464
1
1
1
1
1
1
1
1
1
1
1
1
1
1
1
1
1
1
1
1
1
1
1
1
1
1
1
1
1
1
1
1
1
1
1
1
1
1
1
1
1
1
1
1
1
1
1
1
1
1
1
1
1.00127
5.91048
9.89592
9.95985
10.0393
10.0871
10.1297
10.1608
10.1887
10.215
10.241
10.2643
10.2834
10.2999
10.315
10.3277
10.3372
10.3442
10.348
10.3493
10.3478
10.3433
10.3337
10.3173
10.2948
10.268
10.2382
10.2053
10.1678
10.1249
10.0739
10.0121
9.93656
9.84497
9.73262
9.59516
9.4259
9.21738
8.95325
8.6071
8.11274
7.45654
6.18055
4.37377
1
1
1
1
1
1
1
1
1
1
1
1
1
1
1
1
1
1
1
1
1
1
1
1
1
1
1
1
1
1
1
1
1
1
1
1
1
1
1
1
1
1
1
1
1
1
1
1
1
1
1
1
0.999986
4.4171
9.50388
9.94
10.023
10.0697
10.0914
10.1187
10.1454
10.1701
10.1944
10.2166
10.2347
10.2495
10.2625
10.2727
10.2789
10.2827
10.2832
10.2819
10.278
10.271
10.2588
10.24
10.2141
10.1827
10.1467
10.1067
10.0616
10.0104
9.95086
9.87978
9.79322
9.68867
9.56086
9.40496
9.21215
8.97473
8.67204
8.2841
7.74441
6.99297
5.76397
4.273
1
1
1
1
1
1
1
1
1
1
1
1
1
1
1
1
1
1
1
1
1
1
1
1
1
1
1
1
1
1
1
1
1
1
1
1
1
1
1
1
1
1
1
1
1
1
1
1
1
1
1
1
0.999997
2.98904
8.90481
9.97974
10.0115
10.033
10.0566
10.0818
10.1042
10.1258
10.1474
10.1677
10.1845
10.1983
10.21
10.2186
10.2226
10.2229
10.2201
10.2154
10.2082
10.1982
10.1829
10.1614
10.1324
10.0969
10.0555
10.0086
9.95583
9.89626
9.82761
9.74725
9.65017
9.53342
9.39097
9.21851
9.00544
8.74399
8.41362
7.98983
7.43287
6.65207
5.57047
4.37547
1
1
1
1
1
1
1
1
1
1
1
1
1
1
1
1
1
1
1
1
1
1
1
1
1
1
1
1
1
1
1
1
1
1
1
1
1
1
1
1
1
1
1
1
1
1
1
1
1
1
1
1
1
1.7443
8.14241
10.0484
9.96424
9.97581
10.0135
10.0427
10.0651
10.0846
10.1028
10.1199
10.1344
10.1463
10.1565
10.1634
10.1653
10.1625
10.1567
10.1481
10.1372
10.1238
10.1054
10.0808
10.0487
10.0098
9.9638
9.91102
9.85107
9.78318
9.70513
9.61485
9.50748
9.37983
9.2247
9.03826
8.80945
8.5299
8.18201
7.73968
7.17487
6.42783
5.51015
4.51289
1
1
1
1
1
1
1
1
1
1
1
1
1
1
1
1
1
1
1
1
1
1
1
1
1
1
1
1
1
1
1
1
1
1
1
1
1
1
1
1
1
1
1
1
1
1
1
1
1
1
1
1
1
1.06345
6.83813
10.019
9.93959
9.94273
9.97316
10.0007
10.022
10.0399
10.056
10.0709
10.0838
10.094
10.1025
10.1074
10.1072
10.1022
10.0937
10.0818
10.0673
10.0505
10.0287
10.0003
9.96454
9.9217
9.87141
9.81349
9.74717
9.67163
9.58476
9.48483
9.36763
9.22994
9.06461
8.86698
8.62692
8.33569
7.97893
7.5359
6.97328
6.29454
5.5061
4.64643
1
1
1
1
1
1
1
1
1
1
1
1
1
1
1
1
1
1
1
1
1
1
1
1
1
1
1
1
1
1
1
1
1
1
1
1
1
1
1
1
1
1
1
1
1
1
1
1
1
1
1
1
1
1.00028
5.16315
9.55494
9.81006
9.87986
9.92176
9.94947
9.97266
9.99153
10.0074
10.0212
10.0324
10.0409
10.0473
10.0497
10.0473
10.0403
10.0292
10.0144
9.99658
9.97593
9.95092
9.91883
9.8793
9.83258
9.77832
9.7161
9.64461
9.56266
9.46799
9.35907
9.2326
9.08548
8.9118
8.70574
8.45896
8.1619
7.80405
7.36855
6.82884
6.21677
5.52464
4.77849
1
1
1
1
1
1
1
1
1
1
1
1
1
1
1
1
1
1
1
1
1
1
1
1
1
1
1
1
1
1
1
1
1
1
1
1
1
1
1
1
1
1
1
1
1
1
1
1
1
1
1
1
1
0.999997
3.52616
9.133
9.82439
9.85784
9.8939
9.91573
9.93275
9.94754
9.96079
9.97237
9.98122
9.98744
9.9915
9.99152
9.98713
9.97819
9.9648
9.94757
9.92667
9.90237
9.87382
9.83846
9.7951
9.74423
9.68571
9.61909
9.5428
9.45532
9.35407
9.2375
9.1031
8.9481
8.76802
8.55647
8.30636
8.00818
7.65672
7.23104
6.73116
6.17824
5.55295
4.90816
1
1
1
1
1
1
1
1
1
1
1
1
1
1
1
1
1
1
1
1
1
1
1
1
1
1
1
1
1
1
1
1
1
1
1
1
1
1
1
1
1
1
1
1
1
1
1
1
1
1
1
1
1
0.999999
2.0334
8.34699
9.86126
9.82312
9.8505
9.87828
9.89481
9.90695
9.91738
9.92587
9.93129
9.93433
9.93538
9.93295
9.92636
9.91546
9.90001
9.88043
9.85656
9.82869
9.79613
9.75742
9.71085
9.65643
9.59392
9.52323
9.44256
9.35047
9.2441
9.12162
8.98083
8.8195
8.63443
8.41975
8.16904
7.87344
7.53244
7.12073
6.66303
6.16008
5.59
5.03278
1
1
1
1
1
1
1
1
1
1
1
1
1
1
1
1
1
1
1
1
1
1
1
1
1
1
1
1
1
1
1
1
1
1
1
1
1
1
1
1
1
1
1
1
1
1
1
1
1
1
1
1
1
1
1.1101
6.99256
9.90361
9.82127
9.81476
9.83098
9.84624
9.8587
9.86905
9.87616
9.87962
9.88012
9.87848
9.87395
9.86545
9.85276
9.83564
9.81381
9.78694
9.75553
9.7191
9.6771
9.62779
9.57045
9.50428
9.42958
9.3446
9.24813
9.13732
9.01027
8.86478
8.69908
8.51064
8.29469
8.04592
7.75585
7.4274
7.03343
6.61441
6.15432
5.63658
5.14259
1
1
1
1
1
1
1
1
1
1
1
1
1
1
1
1
1
1
1
1
1
1
1
1
1
1
1
1
1
1
1
1
1
1
1
1
1
1
1
1
1
1
1
1
1
1
1
1
1
1
1
1
1
1
1.00096
5.22479
9.43168
9.67419
9.75627
9.78504
9.79529
9.80779
9.81867
9.82546
9.82749
9.82578
9.82159
9.81487
9.80436
9.78985
9.77116
9.74729
9.71777
9.68316
9.64317
9.59772
9.54549
9.48542
9.41606
9.33766
9.24893
9.14895
9.0346
8.90445
8.75599
8.5877
8.39733
8.18115
7.9356
7.65392
7.33774
6.96419
6.5809
6.15252
5.68385
5.23349
1
1
1
1
1
1
1
1
1
1
1
1
1
1
1
1
1
1
1
1
1
1
1
1
1
1
1
1
1
1
1
1
1
1
1
1
1
1
1
1
1
1
1
1
1
1
1
1
1
1
1
1
1
1
0.999991
3.34136
8.96099
9.72546
9.73535
9.7367
9.75075
9.76435
9.7739
9.77853
9.77831
9.77391
9.76672
9.75713
9.74434
9.72778
9.7073
9.68136
9.6493
9.61157
9.56813
9.51931
9.46413
9.4014
9.32933
9.24786
9.15598
9.05314
8.93608
8.80362
8.65324
8.48391
8.29325
8.07793
7.83651
7.56469
7.2573
6.91103
6.55859
6.15184
5.72822
5.31141
1
1
1
1
1
1
1
1
1
1
1
1
1
1
1
1
1
1
1
1
1
1
1
1
1
1
1
1
1
1
1
1
1
1
1
1
1
1
1
1
1
1
1
1
1
1
1
1
1
1
1
1
1
1
0.999998
1.73853
8.12386
9.8
9.68926
9.67419
9.69767
9.71448
9.72388
9.72751
9.72648
9.7205
9.71105
9.69877
9.68372
9.66506
9.64285
9.61517
9.58116
9.54127
9.49528
9.44351
9.38522
9.31941
9.24448
9.16028
9.06582
8.9603
8.84148
8.70803
8.5567
8.38751
8.1981
7.98488
7.74829
7.48339
7.18767
6.87447
6.53829
6.14662
5.77078
5.38193
1
1
1
1
1
1
1
1
1
1
1
1
1
1
1
1
1
1
1
1
1
1
1
1
1
1
1
1
1
1
1
1
1
1
1
1
1
1
1
1
1
1
1
1
1
1
1
1
1
1
1
1
1
1
1
1.0537
6.60128
9.62287
9.5846
9.61611
9.64625
9.66405
9.67411
9.67741
9.67601
9.66875
9.65734
9.64236
9.62484
9.60374
9.57945
9.54982
9.5139
9.47225
9.42409
9.36954
9.30811
9.23919
9.16151
9.07501
8.97871
8.87131
8.75122
8.61722
8.46608
8.29768
8.11018
7.90058
7.66915
7.41089
7.13232
6.83944
6.50945
6.15023
5.81669
5.44473
1
1
1
1
1
1
1
1
1
1
1
1
1
1
1
1
1
1
1
1
1
1
1
1
1
1
1
1
1
1
1
1
1
1
1
1
1
1
1
1
1
1
1
1
1
1
1
1
1
1
1
1
1
1
1
1.00014
4.55105
9.14318
9.51058
9.58706
9.61746
9.62783
9.63003
9.63019
9.62652
9.6171
9.60337
9.58554
9.56549
9.54201
9.51566
9.48445
9.447
9.40408
9.35462
9.29822
9.23427
9.16252
9.08214
8.99335
8.89531
8.78652
8.66554
8.53078
8.3802
8.21348
8.02951
7.82311
7.59915
7.34939
7.08215
6.80119
6.48758
6.16922
5.85319
5.49206
1
1
1
1
1
1
1
1
1
1
1
1
1
1
1
1
1
1
1
1
1
1
1
1
1
1
1
1
1
1
1
1
1
1
1
1
1
1
1
1
1
1
1
1
1
1
1
1
1
1
1
1
1
1
1
0.999999
2.53311
8.50429
9.6162
9.58697
9.58132
9.58632
9.58703
9.58397
9.57742
9.56561
9.54971
9.52947
9.50718
9.48173
9.45341
9.42062
9.38163
9.33727
9.28643
9.22845
9.16238
9.08829
9.00566
8.91483
8.81511
8.70518
8.58369
8.4488
8.29904
8.13424
7.95381
7.75083
7.53761
7.29298
7.03611
6.77235
6.47638
6.18141
5.86834
5.53689
1
1
1
1
1
1
1
1
1
1
1
1
1
1
1
1
1
1
1
1
1
1
1
1
1
1
1
1
1
1
1
1
1
1
1
1
1
1
1
1
1
1
1
1
1
1
1
1
1
1
1
1
1
1
1
1
1.20358
7.20408
9.67982
9.5555
9.52532
9.53209
9.53647
9.53345
9.52629
9.51358
9.49649
9.47462
9.45033
9.42284
9.39257
9.35822
9.31795
9.27217
9.21977
9.16036
9.09273
9.01703
8.9327
8.84009
8.73865
8.62767
8.50587
8.37137
8.22294
8.06015
7.8824
7.68539
7.4788
7.24021
7.00245
6.74999
6.46263
6.18241
5.88759
5.5961
1
1
1
1
1
1
1
1
1
1
1
1
1
1
1
1
1
1
1
1
1
1
1
1
1
1
1
1
1
1
1
1
1
1
1
1
1
1
1
1
1
1
1
1
1
1
1
1
1
1
1
1
1
1
1
1
1.00357
5.27894
9.18746
9.39789
9.46733
9.49091
9.49073
9.48381
9.47507
9.46201
9.44454
9.42173
9.39573
9.36627
9.33402
9.2979
9.25621
9.20879
9.15448
9.09344
9.02447
8.94758
8.862
8.76799
8.66503
8.55306
8.43112
8.29736
8.15096
7.99045
7.81603
7.6248
7.42031
7.19631
6.97581
6.722
6.4487
6.19299
5.92048
5.64591
1
1
1
1
1
1
1
1
1
1
1
1
1
1
1
1
1
1
1
1
1
1
1
1
1
1
1
1
1
1
1
1
1
1
1
1
1
1
1
1
1
1
1
1
1
1
1
1
1
1
1
1
1
1
1
1
0.999967
2.99993
8.6404
9.48673
9.46183
9.4474
9.44724
9.43923
9.42789
9.414
9.39631
9.37295
9.34531
9.31362
9.27889
9.24054
9.1971
9.14793
9.09166
9.02883
8.95835
8.88022
8.7935
8.69846
8.59451
8.48193
8.36022
8.22752
8.08383
7.92584
7.75546
7.56834
7.36952
7.16118
6.94309
6.69353
6.45135
6.21149
5.94593
5.6764
1
1
1
1
1
1
1
1
1
1
1
1
1
1
1
1
1
1
1
1
1
1
1
1
1
1
1
1
1
1
1
1
1
1
1
1
1
1
1
1
1
1
1
1
1
1
1
1
1
1
1
1
1
1
1
1
0.999992
1.30447
7.50856
9.59341
9.44037
9.39912
9.38775
9.38383
9.37488
9.36377
9.34776
9.32499
9.29637
9.2628
9.22558
9.18478
9.13927
9.08818
9.03002
8.96552
8.8937
8.81437
8.72665
8.63091
8.5266
8.41381
8.29258
8.16098
8.02045
7.86453
7.69855
7.51704
7.32549
7.12355
6.90818
6.67985
6.45858
6.21634
5.95571
5.70416
1
1
1
1
1
1
1
1
1
1
1
1
1
1
1
1
1
1
1
1
1
1
1
1
1
1
1
1
1
1
1
1
1
1
1
1
1
1
1
1
1
1
1
1
1
1
1
1
1
1
1
1
1
1
1
1
0.999999
1.00848
5.58907
9.1224
9.26078
9.32114
9.34239
9.33516
9.32471
9.31481
9.30018
9.2785
9.24936
9.21433
9.17448
9.13093
9.08308
9.03011
8.97052
8.90487
8.83185
8.75131
8.66248
8.56615
8.46198
8.34969
8.22946
8.09924
7.96193
7.80727
7.64674
7.4712
7.28369
7.08853
6.88555
6.6732
6.45211
6.20989
5.97141
5.74292
1
1
1
1
1
1
1
1
1
1
1
1
1
1
1
1
1
1
1
1
1
1
1
1
1
1
1
1
1
1
1
1
1
1
1
1
1
1
1
1
1
1
1
1
1
1
1
1
1
1
1
1
1
1
1
1
1
0.999934
3.15238
8.60157
9.34031
9.32094
9.29904
9.29311
9.28658
9.27408
9.25701
9.23413
9.20348
9.16623
9.12354
9.07714
9.0268
8.97196
8.91119
8.84479
8.77115
8.69002
8.60057
8.50407
8.40033
8.28897
8.16995
8.04132
7.90578
7.75303
7.59813
7.42597
7.24499
7.06241
6.86664
6.65535
6.43713
6.21603
5.99563
5.7762
1
1
1
1
1
1
1
1
1
1
1
1
1
1
1
1
1
1
1
1
1
1
1
1
1
1
1
1
1
1
1
1
1
1
1
1
1
1
1
1
1
1
1
1
1
1
1
1
1
1
1
1
1
1
1
1
1
0.999984
1.33212
7.47891
9.45648
9.29943
9.26058
9.24323
9.23978
9.22616
9.20905
9.1869
9.15617
9.11804
9.07343
9.02438
8.9716
8.91502
8.85339
8.78671
8.71278
8.6316
8.5421
8.44585
8.34261
8.23245
8.11482
7.98788
7.85323
7.70495
7.55321
7.38427
7.21397
7.039
6.84276
6.63637
6.43485
6.23048
6.01397
5.79717
1
1
1
1
1
1
1
1
1
1
1
1
1
1
1
1
1
1
1
1
1
1
1
1
1
1
1
1
1
1
1
1
1
1
1
1
1
1
1
1
1
1
1
1
1
1
1
1
1
1
1
1
1
1
1
1
1
0.999997
1.01
5.47887
8.98084
9.11385
9.17472
9.20749
9.20024
9.18054
9.16115
9.13869
9.10784
9.06935
9.02362
8.97246
8.91741
8.85896
8.79625
8.72909
8.65508
8.57425
8.48536
8.39005
8.28753
8.17874
8.06249
7.93646
7.80321
7.65992
7.5092
7.34709
7.18598
7.01082
6.8184
6.62743
6.44039
6.23738
6.02087
5.81153
1
1
1
1
1
1
1
1
1
1
1
1
1
1
1
1
1
1
1
1
1
1
1
1
1
1
1
1
1
1
1
1
1
1
1
1
1
1
1
1
1
1
1
1
1
1
1
1
1
1
1
1
1
1
1
1
1
1
0.999932
2.93743
8.40511
9.19716
9.19128
9.18845
9.1627
9.14038
9.11871
9.09349
9.06147
9.02256
8.97626
8.92331
8.86597
8.80546
8.74133
8.67348
8.59964
8.5194
8.43134
8.33749
8.23601
8.1292
8.01314
7.88781
7.75727
7.61789
7.46977
7.31629
7.15809
6.98382
6.80276
6.62525
6.4415
6.23626
6.0309
5.83501
1
1
1
1
1
1
1
1
1
1
1
1
1
1
1
1
1
1
1
1
1
1
1
1
1
1
1
1
1
1
1
1
1
1
1
1
1
1
1
1
1
1
1
1
1
1
1
1
1
1
1
1
1
1
1
1
1
1
0.999983
1.27454
7.09619
9.27991
9.17504
9.12447
9.10516
9.08932
9.06796
9.04152
9.01009
8.97232
8.92727
8.87451
8.81636
8.75429
8.68846
8.6192
8.54499
8.46536
8.37867
8.28572
8.18669
8.0802
7.96474
7.84127
7.71362
7.57721
7.43354
7.2857
7.12803
6.96099
6.79228
6.61948
6.43246
6.23543
6.05013
5.864
1
1
1
1
1
1
1
1
1
1
1
1
1
1
1
1
1
1
1
1
1
1
1
1
1
1
1
1
1
1
1
1
1
1
1
1
1
1
1
1
1
1
1
1
1
1
1
1
1
1
1
1
1
1
1
1
1
1
0.999997
1.00629
4.85657
8.80311
9.02654
9.06385
9.0694
9.05565
9.02932
8.99842
8.96478
8.92635
8.88121
8.82818
8.76937
8.7061
8.63861
8.56755
8.4926
8.41338
8.32836
8.23689
8.13922
8.03263
7.91985
7.79902
7.67379
7.54031
7.40105
7.25558
7.10166
6.94428
6.78133
6.60856
6.4245
6.24446
6.07234
5.88772
1
1
1
1
1
1
1
1
1
1
1
1
1
1
1
1
1
1
1
1
1
1
1
1
1
1
1
1
1
1
1
1
1
1
1
1
1
1
1
1
1
1
1
1
1
1
1
1
1
1
1
1
1
1
1
1
1
1
1
0.999965
2.28447
8.15892
9.12266
9.0662
9.04218
9.01357
8.98327
8.95147
8.91742
8.87881
8.83333
8.78079
8.72264
8.65962
8.59149
8.51867
8.44234
8.36281
8.27847
8.1885
8.09237
7.98814
7.87671
7.75812
7.63526
7.50497
7.36872
7.22566
7.07874
6.92719
6.76454
6.5954
6.42265
6.25649
6.08781
5.90126
1
1
1
1
1
1
1
1
1
1
1
1
1
1
1
1
1
1
1
1
1
1
1
1
1
1
1
1
1
1
1
1
1
1
1
1
1
1
1
1
1
1
1
1
1
1
1
1
1
1
1
1
1
1
1
1
1
1
1
0.999991
1.12775
6.48158
9.0112
8.99952
8.99576
8.96426
8.9328
8.90061
8.86612
8.82667
8.78116
8.73002
8.6738
8.61258
8.54577
8.4726
8.39562
8.3153
8.23122
8.14246
8.04789
7.94649
7.83712
7.72055
7.59991
7.4726
7.33877
7.19977
7.05912
6.90909
6.7485
6.5879
6.42548
6.26482
6.09548
5.91162
1
1
1
1
1
1
1
1
1
1
1
1
1
1
1
1
1
1
1
1
1
1
1
1
1
1
1
1
1
1
1
1
1
1
1
1
1
1
1
1
1
1
1
1
1
1
1
1
1
1
1
1
1
1
1
1
1
1
1
0.999999
1.00106
3.76362
8.491
8.96482
8.95726
8.92566
8.90106
8.86938
8.82875
8.78254
8.73366
8.68226
8.62733
8.56784
8.50255
8.42993
8.35242
8.27078
8.18595
8.09727
8.00394
7.90475
7.79834
7.68476
7.56631
7.44144
7.31033
7.17615
7.03883
6.88932
6.73505
6.58433
6.42692
6.26588
6.09833
5.92549
1
1
1
1
1
1
1
1
1
1
1
1
1
1
1
1
1
1
1
1
1
1
1
1
1
1
1
1
1
1
1
1
1
1
1
1
1
1
1
1
1
1
1
1
1
1
1
1
1
1
1
1
1
1
1
1
1
1
1
1
0.999995
1.47646
7.50432
9.12792
8.97071
8.91326
8.86429
8.8258
8.77695
8.72774
8.67977
8.63103
8.5795
8.52319
8.46028
8.3896
8.31258
8.23027
8.1446
8.05552
7.96275
7.86526
7.76172
7.65154
7.53549
7.41302
7.28504
7.15488
7.01919
6.87203
6.72564
6.58115
6.42623
6.26601
6.10543
5.94518
1
1
1
1
1
1
1
1
1
1
1
1
1
1
1
1
1
1
1
1
1
1
1
1
1
1
1
1
1
1
1
1
1
1
1
1
1
1
1
1
1
1
1
1
1
1
1
1
1
1
1
1
1
1
1
1
1
1
1
1
0.999999
1.01936
5.38178
8.71137
8.79402
8.8179
8.8103
8.78008
8.72938
8.68161
8.63486
8.58753
8.53724
8.4823
8.42094
8.35192
8.27553
8.19295
8.10631
8.01622
7.92305
7.82638
7.72506
7.61807
7.50508
7.38589
7.26129
7.13367
6.99963
6.85755
6.71738
6.57516
6.42252
6.26716
6.11754
5.96592
1
1
1
1
1
1
1
1
1
1
1
1
1
1
1
1
1
1
1
1
1
1
1
1
1
1
1
1
1
1
1
1
1
1
1
1
1
1
1
1
1
1
1
1
1
1
1
1
1
1
1
1
1
1
1
1
1
1
1
1
1
0.999949
2.57101
8.11876
8.85612
8.82545
8.78667
8.73225
8.68438
8.6427
8.59827
8.55144
8.50036
8.44519
8.38473
8.31729
8.24203
8.15987