/*--------------------------------*- C++ -*----------------------------------*\
  =========                 |
  \\      /  F ield         | OpenFOAM: The Open Source CFD Toolbox
   \\    /   O peration     | Website:  https://openfoam.org
    \\  /    A nd           | Version:  7
     \\/     M anipulation  |
\*---------------------------------------------------------------------------*/
FoamFile
{
    version     2.0;
    format      ascii;
    class       volScalarField;
    location    "2.3";
    object      rho;
}
// * * * * * * * * * * * * * * * * * * * * * * * * * * * * * * * * * * * * * //

dimensions      [1 -3 0 0 0 0 0];

internalField   nonuniform List<scalar> 
64512
(
1.40001
1.40001
1.40001
1.40001
1.40001
1.40001
1.40001
1.40001
1.40001
1.40001
1.40001
1.40001
1.40001
1.40001
1.40001
1.40001
1.40001
1.40001
1.40001
1.40001
1.40001
1.40001
1.40001
1.40001
1.40001
1.40001
1.40001
1.40001
1.40001
1.40001
1.40001
1.40001
1.40001
1.40001
1.40001
1.40001
1.40001
1.40001
1.40001
1.40001
1.40001
1.40001
1.40001
1.40001
1.40001
1.40001
1.40001
1.40001
1.40001
2.10304
4.91952
5.43975
5.45612
5.47678
5.48981
5.50298
5.51896
5.5404
5.56649
5.59383
5.61845
5.63827
5.654
5.66834
5.68459
5.70413
5.72576
5.74666
5.76389
5.77648
5.78597
5.79583
5.80984
5.82887
5.84962
5.86713
5.8781
5.88269
5.88465
5.88889
5.89753
5.9092
5.92128
5.93165
5.93967
5.94632
5.95319
5.96054
5.96716
5.97161
5.97272
5.96935
5.96248
5.95365
5.94799
5.94819
1.40001
1.40001
1.40001
1.40001
1.40001
1.40001
1.40001
1.40001
1.40001
1.40001
1.40001
1.40001
1.40001
1.40001
1.40001
1.40001
1.40001
1.40001
1.40001
1.40001
1.40001
1.40001
1.40001
1.40001
1.40001
1.40001
1.40001
1.40001
1.40001
1.40001
1.40001
1.40001
1.40001
1.40001
1.40001
1.40001
1.40001
1.40001
1.40001
1.40001
1.40001
1.40001
1.40001
1.40001
1.40001
1.40001
1.40001
1.40001
1.40001
2.09093
4.90736
5.43773
5.45577
5.47647
5.48964
5.50276
5.5186
5.53987
5.5659
5.59342
5.6183
5.63836
5.65418
5.66843
5.68446
5.70373
5.72523
5.74622
5.76364
5.77642
5.78602
5.79581
5.80959
5.82812
5.84839
5.86564
5.87669
5.88162
5.88398
5.88848
5.89715
5.90868
5.92056
5.9308
5.93878
5.94542
5.9523
5.9596
5.96614
5.97049
5.9715
5.96805
5.96116
5.95241
5.9469
5.9472
1.40001
1.40001
1.40001
1.40001
1.40001
1.40001
1.40001
1.40001
1.40001
1.40001
1.40001
1.40001
1.40001
1.40001
1.40001
1.40001
1.40001
1.40001
1.40001
1.40001
1.40001
1.40001
1.40001
1.40001
1.40001
1.40001
1.40001
1.40001
1.40001
1.40001
1.40001
1.40001
1.40001
1.40001
1.40001
1.40001
1.40001
1.40001
1.40001
1.40001
1.40001
1.40001
1.40001
1.40001
1.40001
1.40001
1.40001
1.40001
1.40001
2.0621
4.88798
5.43664
5.45288
5.47463
5.48837
5.50172
5.51776
5.53904
5.56494
5.59248
5.61745
5.63771
5.65374
5.66807
5.68402
5.70308
5.72436
5.74533
5.76284
5.77577
5.78552
5.79529
5.80882
5.82673
5.84638
5.8633
5.87447
5.87984
5.88276
5.88767
5.89646
5.90785
5.91948
5.92952
5.93739
5.94403
5.95092
5.95814
5.9645
5.96863
5.96942
5.96581
5.95891
5.95033
5.94507
5.94555
1.40001
1.40001
1.40001
1.40001
1.40001
1.40001
1.40001
1.40001
1.40001
1.40001
1.40001
1.40001
1.40001
1.40001
1.40001
1.40001
1.40001
1.40001
1.40001
1.40001
1.40001
1.40001
1.40001
1.40001
1.40001
1.40001
1.40001
1.40001
1.40001
1.40001
1.40001
1.40001
1.40001
1.40001
1.40001
1.40001
1.40001
1.40001
1.40001
1.40001
1.40001
1.40001
1.40001
1.40001
1.40001
1.40001
1.40001
1.40001
1.40001
2.02002
4.86138
5.4348
5.45014
5.47233
5.48668
5.50062
5.5172
5.53861
5.56431
5.59146
5.61609
5.6362
5.6524
5.66699
5.6832
5.70235
5.72355
5.74444
5.76185
5.77474
5.78451
5.79413
5.80732
5.82448
5.84344
5.86005
5.87144
5.87737
5.88089
5.88618
5.89503
5.90624
5.91763
5.92751
5.93534
5.94202
5.94892
5.95601
5.96211
5.96594
5.9664
5.96256
5.95558
5.94715
5.94219
5.94283
1.40001
1.40001
1.40001
1.40001
1.40001
1.40001
1.40001
1.40001
1.40001
1.40001
1.40001
1.40001
1.40001
1.40001
1.40001
1.40001
1.40001
1.40001
1.40001
1.40001
1.40001
1.40001
1.40001
1.40001
1.40001
1.40001
1.40001
1.40001
1.40001
1.40001
1.40001
1.40001
1.40001
1.40001
1.40001
1.40001
1.40001
1.40001
1.40001
1.40001
1.40001
1.40001
1.40001
1.40001
1.40001
1.40001
1.40001
1.40001
1.40001
1.96736
4.82174
5.43125
5.44663
5.46952
5.4849
5.49997
5.51746
5.53916
5.56448
5.59081
5.61449
5.63397
5.65008
5.66505
5.6819
5.70151
5.72282
5.74359
5.76065
5.7732
5.78271
5.79199
5.80482
5.82133
5.83974
5.85621
5.86794
5.87445
5.87848
5.88401
5.89277
5.90376
5.91498
5.92481
5.93269
5.93945
5.94635
5.95326
5.95907
5.96255
5.96261
5.95851
5.95134
5.94301
5.93834
5.93909
1.40001
1.40001
1.40001
1.40001
1.40001
1.40001
1.40001
1.40001
1.40001
1.40001
1.40001
1.40001
1.40001
1.40001
1.40001
1.40001
1.40001
1.40001
1.40001
1.40001
1.40001
1.40001
1.40001
1.40001
1.40001
1.40001
1.40001
1.40001
1.40001
1.40001
1.40001
1.40001
1.40001
1.40001
1.40001
1.40001
1.40001
1.40001
1.40001
1.40001
1.40001
1.40001
1.40001
1.40001
1.40001
1.40001
1.40001
1.40001
1.40001
1.90453
4.76904
5.42572
5.44232
5.46674
5.48372
5.5002
5.51861
5.54053
5.56532
5.59062
5.61305
5.63157
5.6474
5.66275
5.68032
5.70052
5.72196
5.74259
5.75911
5.77103
5.77998
5.78887
5.80147
5.81763
5.83575
5.85219
5.86424
5.87118
5.87541
5.88079
5.88922
5.89994
5.91111
5.92107
5.92916
5.93607
5.94299
5.94975
5.95529
5.9585
5.9582
5.9538
5.94637
5.93803
5.93353
5.93426
1.40001
1.40001
1.40001
1.40001
1.40001
1.40001
1.40001
1.40001
1.40001
1.40001
1.40001
1.40001
1.40001
1.40001
1.40001
1.40001
1.40001
1.40001
1.40001
1.40001
1.40001
1.40001
1.40001
1.40001
1.40001
1.40001
1.40001
1.40001
1.40001
1.40001
1.40001
1.40001
1.40001
1.40001
1.40001
1.40001
1.40001
1.40001
1.40001
1.40001
1.40001
1.40001
1.40001
1.40001
1.40001
1.40001
1.40001
1.40001
1.40001
1.83278
4.70147
5.42029
5.43804
5.46404
5.48269
5.50057
5.51976
5.54178
5.56613
5.59049
5.61173
5.62921
5.64452
5.65992
5.67794
5.69864
5.72026
5.74086
5.75691
5.76832
5.77684
5.78522
5.79737
5.81315
5.83103
5.84755
5.85996
5.8673
5.8716
5.87668
5.88467
5.89514
5.90635
5.91657
5.92492
5.932
5.93892
5.94552
5.95079
5.95377
5.95317
5.9485
5.94075
5.9322
5.9277
5.92825
1.40001
1.40001
1.40001
1.40001
1.40001
1.40001
1.40001
1.40001
1.40001
1.40001
1.40001
1.40001
1.40001
1.40001
1.40001
1.40001
1.40001
1.40001
1.40001
1.40001
1.40001
1.40001
1.40001
1.40001
1.40001
1.40001
1.40001
1.40001
1.40001
1.40001
1.40001
1.40001
1.40001
1.40001
1.40001
1.40001
1.40001
1.40001
1.40001
1.40001
1.40001
1.40001
1.40001
1.40001
1.40001
1.40001
1.40001
1.40001
1.40001
1.75534
4.61571
5.41728
5.43488
5.46155
5.48132
5.50034
5.52028
5.54251
5.56648
5.58995
5.61011
5.62666
5.64148
5.65679
5.67497
5.69591
5.71771
5.73836
5.75438
5.76542
5.77338
5.78094
5.79237
5.80774
5.8255
5.84226
5.85517
5.86292
5.86719
5.87179
5.87918
5.88927
5.90046
5.9109
5.91953
5.92677
5.93372
5.94024
5.94539
5.94828
5.94755
5.9427
5.93458
5.92565
5.9209
5.92108
1.40001
1.40001
1.40001
1.40001
1.40001
1.40001
1.40001
1.40001
1.40001
1.40001
1.40001
1.40001
1.40001
1.40001
1.40001
1.40001
1.40001
1.40001
1.40001
1.40001
1.40001
1.40001
1.40001
1.40001
1.40001
1.40001
1.40001
1.40001
1.40001
1.40001
1.40001
1.40001
1.40001
1.40001
1.40001
1.40001
1.40001
1.40001
1.40001
1.40001
1.40001
1.40001
1.40001
1.40001
1.40001
1.40001
1.40001
1.40001
1.40001
1.67443
4.51282
5.42079
5.43411
5.45945
5.47943
5.49929
5.52002
5.54251
5.56609
5.58872
5.60794
5.6237
5.63805
5.65306
5.67098
5.69187
5.7138
5.73457
5.75069
5.76156
5.7691
5.77585
5.78659
5.80166
5.81947
5.83656
5.84994
5.85799
5.86208
5.86608
5.8728
5.88249
5.89364
5.90432
5.91322
5.92061
5.92755
5.934
5.93912
5.94202
5.94129
5.93634
5.92777
5.91825
5.91296
5.91261
1.40001
1.40001
1.40001
1.40001
1.40001
1.40001
1.40001
1.40001
1.40001
1.40001
1.40001
1.40001
1.40001
1.40001
1.40001
1.40001
1.40001
1.40001
1.40001
1.40001
1.40001
1.40001
1.40001
1.40001
1.40001
1.40001
1.40001
1.40001
1.40001
1.40001
1.40001
1.40001
1.40001
1.40001
1.40001
1.40001
1.40001
1.40001
1.40001
1.40001
1.40001
1.40001
1.40001
1.40001
1.40001
1.40001
1.40001
1.40001
1.40001
1.59011
4.39212
5.42827
5.43363
5.45645
5.47672
5.4972
5.51844
5.54081
5.56388
5.58566
5.60404
5.6192
5.63324
5.64803
5.66576
5.68668
5.70882
5.72983
5.74638
5.75738
5.76461
5.77044
5.78024
5.79475
5.81242
5.82974
5.8436
5.85206
5.85614
5.85969
5.86579
5.87505
5.88605
5.89684
5.90591
5.91334
5.92017
5.92653
5.93172
5.93481
5.93432
5.92941
5.92036
5.91009
5.904
5.90303
1.40001
1.40001
1.40001
1.40001
1.40001
1.40001
1.40001
1.40001
1.40001
1.40001
1.40001
1.40001
1.40001
1.40001
1.40001
1.40001
1.40001
1.40001
1.40001
1.40001
1.40001
1.40001
1.40001
1.40001
1.40001
1.40001
1.40001
1.40001
1.40001
1.40001
1.40001
1.40001
1.40001
1.40001
1.40001
1.40001
1.40001
1.40001
1.40001
1.40001
1.40001
1.40001
1.40001
1.40001
1.40001
1.40001
1.40001
1.40001
1.40001
1.50038
4.259
5.43683
5.43579
5.45448
5.47485
5.49551
5.5171
5.53948
5.56196
5.58272
5.6001
5.61471
5.62857
5.6432
5.66042
5.68071
5.7022
5.72273
5.73948
5.7507
5.75801
5.76339
5.77263
5.78676
5.80435
5.82191
5.83625
5.84518
5.84939
5.85259
5.85812
5.86688
5.87766
5.88847
5.89767
5.9051
5.91176
5.91796
5.92316
5.92653
5.92649
5.9218
5.91234
5.90124
5.89412
5.89248
1.40001
1.40001
1.40001
1.40001
1.40001
1.40001
1.40001
1.40001
1.40001
1.40001
1.40001
1.40001
1.40001
1.40001
1.40001
1.40001
1.40001
1.40001
1.40001
1.40001
1.40001
1.40001
1.40001
1.40001
1.40001
1.40001
1.40001
1.40001
1.40001
1.40001
1.40001
1.40001
1.40001
1.40001
1.40001
1.40001
1.40001
1.40001
1.40001
1.40001
1.40001
1.40001
1.40001
1.40001
1.40001
1.40001
1.40001
1.40001
1.40001
1.40751
4.0903
5.41711
5.42631
5.44406
5.46634
5.48802
5.50984
5.53208
5.55448
5.575
5.59207
5.60649
5.62031
5.63492
5.65196
5.67226
5.69379
5.71449
5.73192
5.74376
5.75151
5.75671
5.7654
5.77892
5.79612
5.81357
5.82812
5.83741
5.84181
5.84478
5.84976
5.85795
5.86835
5.87903
5.88824
5.89563
5.9021
5.90808
5.91325
5.91702
5.9176
5.91318
5.90343
5.8915
5.88318
5.88083
1.40001
1.40001
1.40001
1.40001
1.40001
1.40001
1.40001
1.40001
1.40001
1.40001
1.40001
1.40001
1.40001
1.40001
1.40001
1.40001
1.40001
1.40001
1.40001
1.40001
1.40001
1.40001
1.40001
1.40001
1.40001
1.40001
1.40001
1.40001
1.40001
1.40001
1.40001
1.40001
1.40001
1.40001
1.40001
1.40001
1.40001
1.40001
1.40001
1.40001
1.40001
1.40001
1.40001
1.40001
1.40001
1.40001
1.40001
1.40001
1.40001
1.40008
3.86069
5.38011
5.41442
5.43429
5.45774
5.47956
5.50145
5.52392
5.54685
5.5679
5.58528
5.59976
5.61343
5.62767
5.64407
5.66385
5.68497
5.70547
5.72334
5.73586
5.7442
5.74935
5.75732
5.76987
5.78629
5.80342
5.81814
5.82797
5.8329
5.83596
5.84055
5.84817
5.85808
5.86853
5.87771
5.88509
5.89143
5.89724
5.90232
5.90633
5.90749
5.90347
5.8936
5.88096
5.87146
5.8685
1.40001
1.40001
1.40001
1.40001
1.40001
1.40001
1.40001
1.40001
1.40001
1.40001
1.40001
1.40001
1.40001
1.40001
1.40001
1.40001
1.40001
1.40001
1.40001
1.40001
1.40001
1.40001
1.40001
1.40001
1.40001
1.40001
1.40001
1.40001
1.40001
1.40001
1.40001
1.40001
1.40001
1.40001
1.40001
1.40001
1.40001
1.40001
1.40001
1.40001
1.40001
1.40001
1.40001
1.40001
1.40001
1.40001
1.40001
1.40001
1.40001
1.40001
3.61029
5.34332
5.40142
5.42339
5.44792
5.47024
5.49234
5.51505
5.53847
5.5603
5.57835
5.59294
5.60624
5.61982
5.6353
5.65441
5.67514
5.6955
5.71395
5.72745
5.73672
5.74224
5.74959
5.76103
5.7764
5.79292
5.80757
5.81785
5.82335
5.82655
5.83071
5.83761
5.84686
5.85691
5.86602
5.87347
5.87983
5.88553
5.89048
5.89445
5.89595
5.89233
5.88247
5.86937
5.8589
5.85555
1.40001
1.40001
1.40001
1.40001
1.40001
1.40001
1.40001
1.40001
1.40001
1.40001
1.40001
1.40001
1.40001
1.40001
1.40001
1.40001
1.40001
1.40001
1.40001
1.40001
1.40001
1.40001
1.40001
1.40001
1.40001
1.40001
1.40001
1.40001
1.40001
1.40001
1.40001
1.40001
1.40001
1.40001
1.40001
1.40001
1.40001
1.40001
1.40001
1.40001
1.40001
1.40001
1.40001
1.40001
1.40001
1.40001
1.40001
1.40001
1.40001
1.40001
3.34292
5.30751
5.39332
5.41458
5.43886
5.46109
5.48332
5.50636
5.53048
5.55345
5.57256
5.58753
5.60039
5.61295
5.62703
5.64487
5.66486
5.6848
5.70364
5.71816
5.72849
5.7346
5.74133
5.75145
5.76544
5.78112
5.79562
5.80645
5.81275
5.81639
5.82032
5.82656
5.83505
5.84451
5.85335
5.86073
5.86704
5.87263
5.8774
5.88115
5.88274
5.87945
5.86973
5.8565
5.84548
5.84204
1.40001
1.40001
1.40001
1.40001
1.40001
1.40001
1.40001
1.40001
1.40001
1.40001
1.40001
1.40001
1.40001
1.40001
1.40001
1.40001
1.40001
1.40001
1.40001
1.40001
1.40001
1.40001
1.40001
1.40001
1.40001
1.40001
1.40001
1.40001
1.40001
1.40001
1.40001
1.40001
1.40001
1.40001
1.40001
1.40001
1.40001
1.40001
1.40001
1.40001
1.40001
1.40001
1.40001
1.40001
1.40001
1.40001
1.40001
1.40001
1.40001
1.40001
3.0594
5.26463
5.39426
5.41025
5.43206
5.45286
5.47449
5.49743
5.52208
5.54615
5.56654
5.58217
5.59476
5.60634
5.61884
5.63498
5.65403
5.6735
5.69265
5.70831
5.71993
5.72701
5.73329
5.74203
5.75442
5.76901
5.78313
5.79432
5.80138
5.80548
5.80922
5.81472
5.82226
5.83091
5.83928
5.84653
5.85291
5.85856
5.86331
5.86673
5.86813
5.86487
5.85523
5.84208
5.83094
5.82767
1.40001
1.40001
1.40001
1.40001
1.40001
1.40001
1.40001
1.40001
1.40001
1.40001
1.40001
1.40001
1.40001
1.40001
1.40001
1.40001
1.40001
1.40001
1.40001
1.40001
1.40001
1.40001
1.40001
1.40001
1.40001
1.40001
1.40001
1.40001
1.40001
1.40001
1.40001
1.40001
1.40001
1.40001
1.40001
1.40001
1.40001
1.40001
1.40001
1.40001
1.40001
1.40001
1.40001
1.40001
1.40001
1.40001
1.40001
1.40001
1.40001
1.40001
2.76145
5.19262
5.40212
5.41217
5.43108
5.44936
5.46927
5.49132
5.51563
5.54016
5.56164
5.57812
5.59058
5.601
5.61148
5.62504
5.64246
5.66109
5.68028
5.69701
5.70996
5.71826
5.72431
5.73178
5.74252
5.75591
5.76956
5.78101
5.78881
5.79349
5.79719
5.80208
5.80872
5.81644
5.82409
5.83095
5.83723
5.84295
5.84774
5.85082
5.85183
5.84839
5.83875
5.8259
5.81515
5.81234
1.40001
1.40001
1.40001
1.40001
1.40001
1.40001
1.40001
1.40001
1.40001
1.40001
1.40001
1.40001
1.40001
1.40001
1.40001
1.40001
1.40001
1.40001
1.40001
1.40001
1.40001
1.40001
1.40001
1.40001
1.40001
1.40001
1.40001
1.40001
1.40001
1.40001
1.40001
1.40001
1.40001
1.40001
1.40001
1.40001
1.40001
1.40001
1.40001
1.40001
1.40001
1.40001
1.40001
1.40001
1.40001
1.40001
1.40001
1.40001
1.40001
1.40001
2.46366
5.0707
5.40974
5.41634
5.43411
5.45056
5.46857
5.4888
5.51178
5.53584
5.55793
5.57544
5.58837
5.59826
5.60698
5.61754
5.63264
5.65001
5.66878
5.68611
5.70007
5.70961
5.71558
5.72188
5.73088
5.74285
5.75573
5.76705
5.77519
5.78022
5.78387
5.78822
5.79401
5.80076
5.80752
5.81376
5.81982
5.82566
5.83068
5.83355
5.83406
5.83015
5.82025
5.80766
5.79755
5.79535
1.40001
1.40001
1.40001
1.40001
1.40001
1.40001
1.40001
1.40001
1.40001
1.40001
1.40001
1.40001
1.40001
1.40001
1.40001
1.40001
1.40001
1.40001
1.40001
1.40001
1.40001
1.40001
1.40001
1.40001
1.40001
1.40001
1.40001
1.40001
1.40001
1.40001
1.40001
1.40001
1.40001
1.40001
1.40001
1.40001
1.40001
1.40001
1.40001
1.40001
1.40001
1.40001
1.40001
1.40001
1.40001
1.40001
1.40001
1.40001
1.40001
1.40001
2.17293
4.90848
5.41608
5.42603
5.44454
5.45765
5.47206
5.48881
5.50906
5.53173
5.55392
5.57246
5.58641
5.59656
5.60426
5.61218
5.62437
5.63991
5.65781
5.67531
5.68993
5.70062
5.7068
5.71219
5.71953
5.72994
5.74176
5.75258
5.76064
5.76578
5.76935
5.77327
5.77835
5.78413
5.78979
5.79504
5.80056
5.80634
5.81157
5.8144
5.81446
5.80996
5.79975
5.78738
5.77805
5.77652
1.40001
1.40001
1.40001
1.40001
1.40001
1.40001
1.40001
1.40001
1.40001
1.40001
1.40001
1.40001
1.40001
1.40001
1.40001
1.40001
1.40001
1.40001
1.40001
1.40001
1.40001
1.40001
1.40001
1.40001
1.40001
1.40001
1.40001
1.40001
1.40001
1.40001
1.40001
1.40001
1.40001
1.40001
1.40001
1.40001
1.40001
1.40001
1.40001
1.40001
1.40001
1.40001
1.40001
1.40001
1.40001
1.40001
1.40001
1.40001
1.40001
1.40001
1.88769
4.73161
5.44061
5.43331
5.45044
5.46143
5.47359
5.48812
5.50626
5.52721
5.54881
5.5681
5.58344
5.59474
5.60246
5.60864
5.61774
5.63087
5.64732
5.66462
5.67954
5.69114
5.69782
5.70266
5.7086
5.71739
5.72792
5.73782
5.74533
5.75019
5.75348
5.75697
5.76141
5.76628
5.77076
5.77484
5.77957
5.78513
5.79044
5.79335
5.79306
5.78787
5.77715
5.76467
5.75587
5.75478
1.40001
1.40001
1.40001
1.40001
1.40001
1.40001
1.40001
1.40001
1.40001
1.40001
1.40001
1.40001
1.40001
1.40001
1.40001
1.40001
1.40001
1.40001
1.40001
1.40001
1.40001
1.40001
1.40001
1.40001
1.40001
1.40001
1.40001
1.40001
1.40001
1.40001
1.40001
1.40001
1.40001
1.40001
1.40001
1.40001
1.40001
1.40001
1.40001
1.40001
1.40001
1.40001
1.40001
1.40001
1.40001
1.40001
1.40001
1.40001
1.40001
1.40001
1.62022
4.5058
5.4681
5.43682
5.44774
5.45813
5.47017
5.48385
5.5005
5.52016
5.54127
5.56107
5.57774
5.59067
5.59958
5.60558
5.61237
5.62295
5.63728
5.65386
5.66873
5.68085
5.68817
5.69291
5.6978
5.705
5.71403
5.72269
5.72925
5.73349
5.73634
5.73936
5.74316
5.74713
5.75038
5.75311
5.75672
5.76161
5.76664
5.76957
5.76909
5.76339
5.75229
5.73961
5.73111
5.73024
1.40001
1.40001
1.40001
1.40001
1.40001
1.40001
1.40001
1.40001
1.40001
1.40001
1.40001
1.40001
1.40001
1.40001
1.40001
1.40001
1.40001
1.40001
1.40001
1.40001
1.40001
1.40001
1.40001
1.40001
1.40001
1.40001
1.40001
1.40001
1.40001
1.40001
1.40001
1.40001
1.40001
1.40001
1.40001
1.40001
1.40001
1.40001
1.40001
1.40001
1.40001
1.40001
1.40001
1.40001
1.40001
1.40001
1.40001
1.40001
1.40001
1.40001
1.4271
4.20474
5.41595
5.40527
5.42548
5.44202
5.4584
5.47443
5.49113
5.50972
5.52968
5.54948
5.56747
5.58262
5.5939
5.6012
5.60706
5.61561
5.62756
5.64284
5.65732
5.66953
5.67755
5.68258
5.68681
5.69252
5.69986
5.70703
5.71239
5.71577
5.71801
5.72039
5.72342
5.72643
5.72847
5.72986
5.73218
5.73609
5.74051
5.74335
5.74266
5.73641
5.72475
5.71144
5.70267
5.70147
1.40001
1.40001
1.40001
1.40001
1.40001
1.40001
1.40001
1.40001
1.40001
1.40001
1.40001
1.40001
1.40001
1.40001
1.40001
1.40001
1.40001
1.40001
1.40001
1.40001
1.40001
1.40001
1.40001
1.40001
1.40001
1.40001
1.40001
1.40001
1.40001
1.40001
1.40001
1.40001
1.40001
1.40001
1.40001
1.40001
1.40001
1.40001
1.40001
1.40001
1.40001
1.40001
1.40001
1.40001
1.40001
1.40001
1.40001
1.40001
1.40001
1.40001
1.40038
3.80119
5.31534
5.3709
5.40109
5.42449
5.4436
5.46097
5.47827
5.49696
5.51654
5.53574
5.55365
5.5698
5.58322
5.59327
5.6003
5.60787
5.61767
5.63109
5.64485
5.65689
5.66554
5.67109
5.67504
5.6795
5.68513
5.69071
5.69477
5.69713
5.69857
5.70002
5.70203
5.70394
5.70479
5.70488
5.70567
5.70805
5.71134
5.7137
5.7126
5.70592
5.69386
5.67994
5.67072
5.66904
1.40001
1.40001
1.40001
1.40001
1.40001
1.40001
1.40001
1.40001
1.40001
1.40001
1.40001
1.40001
1.40001
1.40001
1.40001
1.40001
1.40001
1.40001
1.40001
1.40001
1.40001
1.40001
1.40001
1.40001
1.40001
1.40001
1.40001
1.40001
1.40001
1.40001
1.40001
1.40001
1.40001
1.40001
1.40001
1.40001
1.40001
1.40001
1.40001
1.40001
1.40001
1.40001
1.40001
1.40001
1.40001
1.40001
1.40001
1.40001
1.40001
1.40001
1.40001
3.39106
5.24147
5.33678
5.37089
5.40124
5.42472
5.44501
5.4638
5.48234
5.50167
5.5206
5.53821
5.55424
5.56876
5.58052
5.5893
5.5975
5.60646
5.61817
5.63094
5.64259
5.65174
5.65785
5.66186
5.66535
5.66943
5.67346
5.67624
5.67757
5.67806
5.67825
5.67892
5.67948
5.67913
5.67798
5.67717
5.67772
5.6796
5.68113
5.67938
5.67206
5.65907
5.64383
5.63345
5.63066
1.40001
1.40001
1.40001
1.40001
1.40001
1.40001
1.40001
1.40001
1.40001
1.40001
1.40001
1.40001
1.40001
1.40001
1.40001
1.40001
1.40001
1.40001
1.40001
1.40001
1.40001
1.40001
1.40001
1.40001
1.40001
1.40001
1.40001
1.40001
1.40001
1.40001
1.40001
1.40001
1.40001
1.40001
1.40001
1.40001
1.40001
1.40001
1.40001
1.40001
1.40001
1.40001
1.40001
1.40001
1.40001
1.40001
1.40001
1.40001
1.40001
1.40001
1.40001
2.96432
5.13934
5.32481
5.36504
5.39276
5.41269
5.43032
5.44819
5.46635
5.48537
5.50381
5.52098
5.53684
5.5518
5.56561
5.57616
5.58441
5.59281
5.6029
5.61493
5.62643
5.63583
5.64234
5.64658
5.64944
5.65228
5.65498
5.6566
5.65702
5.65644
5.65509
5.6541
5.65307
5.65144
5.64884
5.64602
5.64466
5.64446
5.64413
5.64111
5.63283
5.61887
5.60248
5.59097
5.58729
1.40001
1.40001
1.40001
1.40001
1.40001
1.40001
1.40001
1.40001
1.40001
1.40001
1.40001
1.40001
1.40001
1.40001
1.40001
1.40001
1.40001
1.40001
1.40001
1.40001
1.40001
1.40001
1.40001
1.40001
1.40001
1.40001
1.40001
1.40001
1.40001
1.40001
1.40001
1.40001
1.40001
1.40001
1.40001
1.40001
1.40001
1.40001
1.40001
1.40001
1.40001
1.40001
1.40001
1.40001
1.40001
1.40001
1.40001
1.40001
1.40001
1.40001
1.40001
2.52895
5.02033
5.34082
5.36264
5.38688
5.40621
5.42324
5.43855
5.45447
5.47139
5.48848
5.50425
5.51886
5.53295
5.54665
5.55852
5.56817
5.5766
5.5856
5.59654
5.6076
5.61734
5.62416
5.6286
5.63115
5.63313
5.63484
5.63557
5.63517
5.6333
5.63044
5.62755
5.6247
5.62153
5.61721
5.61217
5.60856
5.60599
5.6034
5.59864
5.589
5.57322
5.55426
5.54025
5.53446
1.40001
1.40001
1.40001
1.40001
1.40001
1.40001
1.40001
1.40001
1.40001
1.40001
1.40001
1.40001
1.40001
1.40001
1.40001
1.40001
1.40001
1.40001
1.40001
1.40001
1.40001
1.40001
1.40001
1.40001
1.40001
1.40001
1.40001
1.40001
1.40001
1.40001
1.40001
1.40001
1.40001
1.40001
1.40001
1.40001
1.40001
1.40001
1.40001
1.40001
1.40001
1.40001
1.40001
1.40001
1.40001
1.40001
1.40001
1.40001
1.40001
1.40001
1.40001
2.07587
4.83986
5.41969
5.39966
5.40937
5.41581
5.42227
5.43151
5.44478
5.46024
5.4765
5.49125
5.50411
5.51623
5.52848
5.53992
5.54959
5.55792
5.56616
5.57597
5.58723
5.59616
5.60291
5.60743
5.61004
5.61163
5.61275
5.61293
5.61165
5.60845
5.60406
5.59923
5.59438
5.58935
5.58296
5.57543
5.56891
5.56333
5.55733
5.54901
5.53647
5.51817
5.49682
5.48069
5.474
1.40001
1.40001
1.40001
1.40001
1.40001
1.40001
1.40001
1.40001
1.40001
1.40001
1.40001
1.40001
1.40001
1.40001
1.40001
1.40001
1.40001
1.40001
1.40001
1.40001
1.40001
1.40001
1.40001
1.40001
1.40001
1.40001
1.40001
1.40001
1.40001
1.40001
1.40001
1.40001
1.40001
1.40001
1.40001
1.40001
1.40001
1.40001
1.40001
1.40001
1.40001
1.40001
1.40001
1.40001
1.40001
1.40001
1.40001
1.40001
1.40001
1.40001
1.40001
1.64597
4.59776
5.48646
5.4252
5.41687
5.41798
5.42476
5.43427
5.44423
5.45557
5.46827
5.48063
5.49163
5.50177
5.51196
5.52197
5.53116
5.53918
5.54677
5.55485
5.56402
5.57288
5.57904
5.58315
5.58581
5.58741
5.58828
5.58798
5.58591
5.58155
5.57563
5.56891
5.56204
5.55482
5.54587
5.53546
5.52524
5.51579
5.50587
5.49368
5.47756
5.45577
5.42912
5.40703
5.3953
1.40001
1.40001
1.40001
1.40001
1.40001
1.40001
1.40001
1.40001
1.40001
1.40001
1.40001
1.40001
1.40001
1.40001
1.40001
1.40001
1.40001
1.40001
1.40001
1.40001
1.40001
1.40001
1.40001
1.40001
1.40001
1.40001
1.40001
1.40001
1.40001
1.40001
1.40001
1.40001
1.40001
1.40001
1.40001
1.40001
1.40001
1.40001
1.40001
1.40001
1.40001
1.40001
1.40001
1.40001
1.40001
1.40001
1.40001
1.40001
1.40001
1.40001
1.40001
1.41454
4.15864
5.40991
5.3867
5.40986
5.42154
5.43017
5.43658
5.44561
5.45554
5.46546
5.47518
5.4836
5.49084
5.49805
5.50572
5.51355
5.52086
5.52765
5.53427
5.54126
5.54798
5.55322
5.55671
5.55918
5.56083
5.56151
5.56072
5.55796
5.55249
5.5451
5.53658
5.52763
5.51781
5.50585
5.49194
5.47736
5.46309
5.44809
5.4299
5.40584
5.37533
5.34156
5.31353
5.30157
1.40001
1.40001
1.40001
1.40001
1.40001
1.40001
1.40001
1.40001
1.40001
1.40001
1.40001
1.40001
1.40001
1.40001
1.40001
1.40001
1.40001
1.40001
1.40001
1.40001
1.40001
1.40001
1.40001
1.40001
1.40001
1.40001
1.40001
1.40001
1.40001
1.40001
1.40001
1.40001
1.40001
1.40001
1.40001
1.40001
1.40001
1.40001
1.40001
1.40001
1.40001
1.40001
1.40001
1.40001
1.40001
1.40001
1.40001
1.40001
1.40001
1.40001
1.40001
1.40003
3.58523
5.24041
5.33592
5.37687
5.40189
5.42237
5.43558
5.44539
5.45397
5.46288
5.47129
5.47802
5.4831
5.48769
5.49262
5.49815
5.50385
5.50924
5.51397
5.5185
5.52324
5.5272
5.52945
5.53125
5.53225
5.53234
5.53104
5.52757
5.52101
5.5122
5.50201
5.49085
5.47795
5.46271
5.44475
5.42505
5.40448
5.38247
5.35655
5.32417
5.28454
5.24065
5.19578
5.1621
1.40001
1.40001
1.40001
1.40001
1.40001
1.40001
1.40001
1.40001
1.40001
1.40001
1.40001
1.40001
1.40001
1.40001
1.40001
1.40001
1.40001
1.40001
1.40001
1.40001
1.40001
1.40001
1.40001
1.40001
1.40001
1.40001
1.40001
1.40001
1.40001
1.40001
1.40001
1.40001
1.40001
1.40001
1.40001
1.40001
1.40001
1.40001
1.40001
1.40001
1.40001
1.40001
1.40001
1.40001
1.40001
1.40001
1.40001
1.40001
1.40001
1.40001
1.40001
1.4
3.06407
5.11354
5.29998
5.34694
5.38268
5.40692
5.42158
5.43277
5.44341
5.45418
5.46379
5.47131
5.47632
5.47961
5.48233
5.48539
5.48891
5.49234
5.49485
5.49666
5.49887
5.50121
5.50235
5.50285
5.50276
5.50177
5.4994
5.49503
5.4874
5.47729
5.4653
5.45148
5.43543
5.41645
5.39383
5.36821
5.34018
5.30964
5.27362
5.22772
5.16677
5.09145
5.01723
4.96647
1.40001
1.40001
1.40001
1.40001
1.40001
1.40001
1.40001
1.40001
1.40001
1.40001
1.40001
1.40001
1.40001
1.40001
1.40001
1.40001
1.40001
1.40001
1.40001
1.40001
1.40001
1.40001
1.40001
1.40001
1.40001
1.40001
1.40001
1.40001
1.40001
1.40001
1.40001
1.40001
1.40001
1.40001
1.40001
1.40001
1.40001
1.40001
1.40001
1.40001
1.40001
1.40001
1.40001
1.40001
1.40001
1.40001
1.40001
1.40001
1.40001
1.40001
1.40001
1.4
2.53136
4.93845
5.29466
5.33966
5.37435
5.3937
5.4066
5.41748
5.42863
5.44028
5.45159
5.46084
5.46709
5.47076
5.4728
5.47427
5.47577
5.47705
5.47743
5.47655
5.47584
5.4758
5.47562
5.4743
5.47238
5.46988
5.46632
5.4604
5.4516
5.44018
5.42611
5.40956
5.39015
5.36706
5.3393
5.30706
5.27038
5.22885
5.17837
5.11326
5.02882
4.92292
4.80386
4.72084
1.40001
1.40001
1.40001
1.40001
1.40001
1.40001
1.40001
1.40001
1.40001
1.40001
1.40001
1.40001
1.40001
1.40001
1.40001
1.40001
1.40001
1.40001
1.40001
1.40001
1.40001
1.40001
1.40001
1.40001
1.40001
1.40001
1.40001
1.40001
1.40001
1.40001
1.40001
1.40001
1.40001
1.40001
1.40001
1.40001
1.40001
1.40001
1.40001
1.40001
1.40001
1.40001
1.40001
1.40001
1.40001
1.40001
1.40001
1.40001
1.40001
1.40001
1.40001
1.40001
1.98033
4.76049
5.38073
5.3581
5.36649
5.37744
5.38955
5.40093
5.41257
5.4245
5.43576
5.44553
5.45321
5.45847
5.46141
5.46266
5.46305
5.46289
5.4615
5.45842
5.45487
5.45211
5.44985
5.44614
5.44202
5.43748
5.43212
5.42448
5.41425
5.40125
5.38504
5.36562
5.34254
5.31495
5.28159
5.24208
5.19565
5.14143
5.07493
4.98925
4.87029
4.68907
4.33322
3.42874
1.40001
1.40001
1.40001
1.40001
1.40001
1.40001
1.40001
1.40001
1.40001
1.40001
1.40001
1.40001
1.40001
1.40001
1.40001
1.40001
1.40001
1.40001
1.40001
1.40001
1.40001
1.40001
1.40001
1.40001
1.40001
1.40001
1.40001
1.40001
1.40001
1.40001
1.40001
1.40001
1.40001
1.40001
1.40001
1.40001
1.40001
1.40001
1.40001
1.40001
1.40001
1.40001
1.40001
1.40001
1.40001
1.40001
1.40001
1.40001
1.40001
1.40001
1.40001
1.40001
1.49281
4.38475
5.43863
5.38383
5.36611
5.36977
5.37957
5.38799
5.39736
5.40792
5.41888
5.42877
5.43669
5.44269
5.44685
5.44887
5.44922
5.44843
5.44602
5.44158
5.43586
5.43023
5.42514
5.4191
5.41222
5.405
5.39712
5.38738
5.37521
5.36032
5.34193
5.31962
5.29274
5.26043
5.2212
5.17404
5.11741
5.04942
4.96467
4.85132
4.68873
4.42607
4.00943
2.99248
1.40001
1.40001
1.40001
1.40001
1.40001
1.40001
1.40001
1.40001
1.40001
1.40001
1.40001
1.40001
1.40001
1.40001
1.40001
1.40001
1.40001
1.40001
1.40001
1.40001
1.40001
1.40001
1.40001
1.40001
1.40001
1.40001
1.40001
1.40001
1.40001
1.40001
1.40001
1.40001
1.40001
1.40001
1.40001
1.40001
1.40001
1.40001
1.40001
1.40001
1.40001
1.40001
1.40001
1.40001
1.40001
1.40001
1.40001
1.40001
1.40001
1.40001
1.40001
1.40001
1.4011
3.78694
5.29048
5.32056
5.35019
5.36244
5.37204
5.37834
5.38513
5.39303
5.40206
5.41088
5.41827
5.42424
5.42898
5.43194
5.43281
5.43217
5.42962
5.42486
5.41794
5.40993
5.40196
5.3936
5.38378
5.37346
5.36245
5.35003
5.33536
5.31809
5.2973
5.27205
5.24135
5.20425
5.15902
5.10416
5.03732
4.95573
4.85261
4.71626
4.51773
4.24603
3.6973
2.8645
1.40001
1.40001
1.40001
1.40001
1.40001
1.40001
1.40001
1.40001
1.40001
1.40001
1.40001
1.40001
1.40001
1.40001
1.40001
1.40001
1.40001
1.40001
1.40001
1.40001
1.40001
1.40001
1.40001
1.40001
1.40001
1.40001
1.40001
1.40001
1.40001
1.40001
1.40001
1.40001
1.40001
1.40001
1.40001
1.40001
1.40001
1.40001
1.40001
1.40001
1.40001
1.40001
1.40001
1.40001
1.40001
1.40001
1.40001
1.40001
1.40001
1.40001
1.40001
1.40001
1.39999
3.11959
5.1183
5.30451
5.34122
5.35923
5.36445
5.37055
5.37608
5.38145
5.38767
5.39418
5.39993
5.40488
5.40924
5.41238
5.41354
5.41311
5.41072
5.40629
5.39918
5.38999
5.3798
5.36911
5.35674
5.34326
5.32877
5.31294
5.29508
5.2747
5.25097
5.22271
5.18833
5.14671
5.09577
5.0337
4.95726
4.86359
4.74428
4.59022
4.37178
4.05884
3.52731
2.84415
1.40001
1.40001
1.40001
1.40001
1.40001
1.40001
1.40001
1.40001
1.40001
1.40001
1.40001
1.40001
1.40001
1.40001
1.40001
1.40001
1.40001
1.40001
1.40001
1.40001
1.40001
1.40001
1.40001
1.40001
1.40001
1.40001
1.40001
1.40001
1.40001
1.40001
1.40001
1.40001
1.40001
1.40001
1.40001
1.40001
1.40001
1.40001
1.40001
1.40001
1.40001
1.40001
1.40001
1.40001
1.40001
1.40001
1.40001
1.40001
1.40001
1.40001
1.40001
1.40001
1.4
2.47749
4.93134
5.32702
5.34013
5.34849
5.35606
5.36303
5.36794
5.372
5.37601
5.37999
5.38341
5.38646
5.38954
5.39202
5.39292
5.39222
5.38983
5.38566
5.37896
5.36972
5.35826
5.34555
5.33097
5.31457
5.29663
5.27705
5.25545
5.23141
5.20413
5.17254
5.13454
5.08871
5.03248
4.96408
4.87943
4.77557
4.64412
4.47422
4.24685
3.91954
3.44868
2.89748
1.40001
1.40001
1.40001
1.40001
1.40001
1.40001
1.40001
1.40001
1.40001
1.40001
1.40001
1.40001
1.40001
1.40001
1.40001
1.40001
1.40001
1.40001
1.40001
1.40001
1.40001
1.40001
1.40001
1.40001
1.40001
1.40001
1.40001
1.40001
1.40001
1.40001
1.40001
1.40001
1.40001
1.40001
1.40001
1.40001
1.40001
1.40001
1.40001
1.40001
1.40001
1.40001
1.40001
1.40001
1.40001
1.40001
1.40001
1.40001
1.40001
1.40001
1.40001
1.40001
1.4
1.86591
4.74127
5.37589
5.33424
5.3346
5.34493
5.35347
5.35936
5.36339
5.36621
5.36821
5.36933
5.37008
5.37107
5.3718
5.37144
5.36981
5.36682
5.36231
5.35596
5.34727
5.33568
5.32184
5.30551
5.28684
5.26596
5.24284
5.21729
5.18914
5.15764
5.122
5.08013
5.03042
4.96966
4.89605
4.80511
4.69349
4.55392
4.37492
4.14246
3.82725
3.42569
2.96739
1.40001
1.40001
1.40001
1.40001
1.40001
1.40001
1.40001
1.40001
1.40001
1.40001
1.40001
1.40001
1.40001
1.40001
1.40001
1.40001
1.40001
1.40001
1.40001
1.40001
1.40001
1.40001
1.40001
1.40001
1.40001
1.40001
1.40001
1.40001
1.40001
1.40001
1.40001
1.40001
1.40001
1.40001
1.40001
1.40001
1.40001
1.40001
1.40001