/*--------------------------------*- C++ -*----------------------------------*\
  =========                 |
  \\      /  F ield         | OpenFOAM: The Open Source CFD Toolbox
   \\    /   O peration     | Website:  https://openfoam.org
    \\  /    A nd           | Version:  7
     \\/     M anipulation  |
\*---------------------------------------------------------------------------*/
FoamFile
{
    version     2.0;
    format      ascii;
    class       volScalarField;
    location    "2.3";
    object      T;
}
// * * * * * * * * * * * * * * * * * * * * * * * * * * * * * * * * * * * * * //

dimensions      [0 0 0 1 0 0 0];

internalField   nonuniform List<scalar> 
64512
(
1
1
1
1
1
1
1
1
1
1
1
1
1
1
1
1
1
1
1
1
1
1
1
1
1
1
1
1
1
1
1
1
1
1
1
1
1
1
1
1
1
1
1
1
1
1
1
1
1
1.53795
2.57636
2.69815
2.6977
2.70157
2.7075
2.71434
2.72068
2.72596
2.73005
2.73323
2.73603
2.73908
2.74275
2.74688
2.75093
2.75436
2.757
2.75912
2.76121
2.76382
2.76703
2.77025
2.77297
2.77509
2.77679
2.77858
2.78135
2.78554
2.79053
2.7951
2.79837
2.8005
2.80235
2.80455
2.80719
2.80974
2.81147
2.81215
2.81237
2.81315
2.81513
2.81903
2.82582
2.83359
2.83921
2.84155
1
1
1
1
1
1
1
1
1
1
1
1
1
1
1
1
1
1
1
1
1
1
1
1
1
1
1
1
1
1
1
1
1
1
1
1
1
1
1
1
1
1
1
1
1
1
1
1
1
1.53172
2.57358
2.69742
2.69747
2.70163
2.70767
2.71445
2.72067
2.7258
2.72981
2.73303
2.73594
2.7391
2.74283
2.74694
2.75091
2.75425
2.75685
2.75899
2.76113
2.7638
2.76706
2.77027
2.77293
2.77496
2.77657
2.77832
2.78111
2.78538
2.79044
2.79505
2.7983
2.8004
2.80223
2.80441
2.80704
2.80958
2.8113
2.81196
2.81216
2.81294
2.81492
2.81882
2.82561
2.83339
2.83902
2.84138
1
1
1
1
1
1
1
1
1
1
1
1
1
1
1
1
1
1
1
1
1
1
1
1
1
1
1
1
1
1
1
1
1
1
1
1
1
1
1
1
1
1
1
1
1
1
1
1
1
1.51321
2.56597
2.69611
2.69672
2.70158
2.70781
2.71449
2.72045
2.72529
2.72915
2.73243
2.73555
2.73895
2.74285
2.74697
2.75084
2.75401
2.7565
2.75862
2.76084
2.76363
2.767
2.77024
2.77286
2.77477
2.77627
2.77795
2.78075
2.78512
2.79029
2.79494
2.79818
2.80026
2.80205
2.80422
2.80683
2.80935
2.81102
2.81164
2.81181
2.81259
2.81458
2.81849
2.82531
2.83309
2.83874
2.84112
1
1
1
1
1
1
1
1
1
1
1
1
1
1
1
1
1
1
1
1
1
1
1
1
1
1
1
1
1
1
1
1
1
1
1
1
1
1
1
1
1
1
1
1
1
1
1
1
1
1.48621
2.55468
2.69504
2.69639
2.70165
2.70784
2.71426
2.7198
2.72428
2.728
2.73141
2.73484
2.7386
2.74277
2.74694
2.75065
2.75361
2.75593
2.75803
2.76033
2.7633
2.76684
2.77016
2.77276
2.77453
2.77589
2.77747
2.78027
2.78473
2.79001
2.79471
2.79794
2.79999
2.80176
2.80392
2.80652
2.809
2.81062
2.81118
2.8113
2.81208
2.81409
2.81804
2.82489
2.83266
2.83831
2.8407
1
1
1
1
1
1
1
1
1
1
1
1
1
1
1
1
1
1
1
1
1
1
1
1
1
1
1
1
1
1
1
1
1
1
1
1
1
1
1
1
1
1
1
1
1
1
1
1
1
1.45262
2.54033
2.695
2.6965
2.70166
2.70751
2.71346
2.71859
2.72281
2.72649
2.73009
2.73388
2.73807
2.74254
2.74675
2.75029
2.75301
2.75515
2.7572
2.75959
2.76274
2.76649
2.76996
2.7726
2.77427
2.77549
2.77697
2.77973
2.78423
2.78959
2.79433
2.79756
2.7996
2.80136
2.80351
2.80611
2.80855
2.81009
2.81059
2.81067
2.81144
2.81348
2.81748
2.82436
2.83211
2.83775
2.84013
1
1
1
1
1
1
1
1
1
1
1
1
1
1
1
1
1
1
1
1
1
1
1
1
1
1
1
1
1
1
1
1
1
1
1
1
1
1
1
1
1
1
1
1
1
1
1
1
1
1.41107
2.52224
2.69575
2.697
2.70164
2.70681
2.71217
2.71693
2.721
2.72472
2.72858
2.73278
2.73742
2.74217
2.74639
2.74973
2.7522
2.75416
2.75617
2.75862
2.76194
2.76592
2.7696
2.77237
2.77401
2.77514
2.7765
2.77917
2.78363
2.789
2.79373
2.79696
2.79898
2.80075
2.80291
2.80551
2.80792
2.80941
2.80986
2.80991
2.81067
2.81275
2.81683
2.82371
2.83144
2.83705
2.83939
1
1
1
1
1
1
1
1
1
1
1
1
1
1
1
1
1
1
1
1
1
1
1
1
1
1
1
1
1
1
1
1
1
1
1
1
1
1
1
1
1
1
1
1
1
1
1
1
1
1.36142
2.49974
2.69647
2.69746
2.70152
2.7059
2.71061
2.71496
2.71889
2.72274
2.7269
2.73154
2.73662
2.74163
2.74581
2.74893
2.75117
2.75297
2.75497
2.75748
2.76098
2.76522
2.76914
2.77206
2.77369
2.77473
2.77598
2.77852
2.78289
2.78822
2.79294
2.79617
2.79821
2.79999
2.80217
2.80477
2.80715
2.8086
2.80901
2.80904
2.80979
2.81189
2.81604
2.82292
2.83061
2.83617
2.83846
1
1
1
1
1
1
1
1
1
1
1
1
1
1
1
1
1
1
1
1
1
1
1
1
1
1
1
1
1
1
1
1
1
1
1
1
1
1
1
1
1
1
1
1
1
1
1
1
1
1.30576
2.47294
2.69624
2.69729
2.70117
2.70495
2.70904
2.71297
2.71676
2.72068
2.7251
2.73015
2.73563
2.74089
2.74507
2.74804
2.75011
2.75181
2.75377
2.75636
2.75998
2.76443
2.76856
2.7716
2.77325
2.77424
2.7754
2.7778
2.78204
2.78728
2.79196
2.79519
2.79725
2.79903
2.8012
2.80378
2.80614
2.80756
2.80797
2.808
2.80876
2.81091
2.81511
2.82198
2.8296
2.83511
2.83732
1
1
1
1
1
1
1
1
1
1
1
1
1
1
1
1
1
1
1
1
1
1
1
1
1
1
1
1
1
1
1
1
1
1
1
1
1
1
1
1
1
1
1
1
1
1
1
1
1
1.24444
2.4401
2.69472
2.6964
2.70074
2.7042
2.70766
2.71109
2.71464
2.71859
2.72327
2.72869
2.73453
2.74001
2.74424
2.74711
2.74909
2.75072
2.75263
2.7552
2.75888
2.76348
2.7678
2.771
2.77272
2.77371
2.7748
2.77705
2.78108
2.78616
2.79078
2.79402
2.7961
2.79789
2.80005
2.80261
2.80495
2.80635
2.80676
2.80681
2.80759
2.80978
2.81403
2.82086
2.8284
2.83381
2.83592
1
1
1
1
1
1
1
1
1
1
1
1
1
1
1
1
1
1
1
1
1
1
1
1
1
1
1
1
1
1
1
1
1
1
1
1
1
1
1
1
1
1
1
1
1
1
1
1
1
1.17262
2.39604
2.69146
2.69514
2.70044
2.70365
2.70643
2.70924
2.71244
2.71643
2.7214
2.72718
2.73331
2.73899
2.74333
2.74625
2.74823
2.74982
2.75165
2.75417
2.75784
2.76252
2.76694
2.77028
2.77206
2.77305
2.77408
2.77615
2.77995
2.78485
2.78941
2.79268
2.7948
2.7966
2.79873
2.80125
2.80353
2.8049
2.80532
2.80539
2.80623
2.80849
2.81278
2.81957
2.827
2.83229
2.83429
1
1
1
1
1
1
1
1
1
1
1
1
1
1
1
1
1
1
1
1
1
1
1
1
1
1
1
1
1
1
1
1
1
1
1
1
1
1
1
1
1
1
1
1
1
1
1
1
1
1.09149
2.34798
2.69012
2.69517
2.7005
2.70335
2.70542
2.70767
2.71064
2.71471
2.71994
2.72601
2.73236
2.73823
2.74271
2.74566
2.74757
2.749
2.75059
2.75294
2.75648
2.76116
2.7657
2.76923
2.77118
2.77224
2.77324
2.77514
2.77866
2.78335
2.78783
2.79114
2.79332
2.79514
2.79724
2.79969
2.80192
2.80325
2.80366
2.80377
2.80466
2.80699
2.81133
2.8181
2.82544
2.83056
2.83244
1
1
1
1
1
1
1
1
1
1
1
1
1
1
1
1
1
1
1
1
1
1
1
1
1
1
1
1
1
1
1
1
1
1
1
1
1
1
1
1
1
1
1
1
1
1
1
1
1
1.00471
2.29657
2.68894
2.69505
2.69929
2.7023
2.70419
2.70615
2.70887
2.7129
2.71821
2.72438
2.73086
2.73689
2.7416
2.74475
2.7468
2.74824
2.74973
2.75191
2.75524
2.7598
2.76439
2.7681
2.77025
2.77141
2.77238
2.77408
2.77727
2.78168
2.78606
2.78939
2.79164
2.79347
2.79553
2.79791
2.80006
2.80134
2.80174
2.80189
2.80284
2.80524
2.80964
2.81642
2.82366
2.82858
2.83033
1
1
1
1
1
1
1
1
1
1
1
1
1
1
1
1
1
1
1
1
1
1
1
1
1
1
1
1
1
1
1
1
1
1
1
1
1
1
1
1
1
1
1
1
1
1
1
1
1
1.00003
2.23407
2.68817
2.69624
2.69948
2.70238
2.70416
2.70599
2.70852
2.71229
2.7173
2.72324
2.72964
2.73581
2.74078
2.74416
2.74635
2.74774
2.74903
2.75094
2.75393
2.75824
2.76276
2.76659
2.76893
2.77022
2.77119
2.77273
2.77562
2.77975
2.78402
2.78739
2.78971
2.79157
2.7936
2.7959
2.79798
2.79922
2.79962
2.7998
2.80078
2.80322
2.80769
2.81449
2.82167
2.82641
2.82804
1
1
1
1
1
1
1
1
1
1
1
1
1
1
1
1
1
1
1
1
1
1
1
1
1
1
1
1
1
1
1
1
1
1
1
1
1
1
1
1
1
1
1
1
1
1
1
1
1
1
2.15733
2.68305
2.69677
2.69967
2.70252
2.70437
2.70614
2.70842
2.71178
2.71632
2.72185
2.72805
2.73432
2.73964
2.74338
2.74583
2.74724
2.74837
2.75001
2.7526
2.75655
2.76092
2.76482
2.76741
2.76889
2.76992
2.77134
2.77391
2.77771
2.78179
2.78515
2.78755
2.78944
2.79143
2.79365
2.79568
2.79691
2.79732
2.79752
2.79849
2.80091
2.80541
2.81223
2.81941
2.82402
2.8256
1
1
1
1
1
1
1
1
1
1
1
1
1
1
1
1
1
1
1
1
1
1
1
1
1
1
1
1
1
1
1
1
1
1
1
1
1
1
1
1
1
1
1
1
1
1
1
1
1
1
2.06554
2.66918
2.6946
2.69879
2.70243
2.70462
2.7064
2.70844
2.71129
2.7152
2.72015
2.72605
2.7324
2.73816
2.74243
2.74523
2.74675
2.7477
2.74903
2.75114
2.75456
2.75866
2.76256
2.76541
2.76716
2.76835
2.76971
2.77201
2.77546
2.77934
2.7827
2.78519
2.78714
2.78909
2.7912
2.79314
2.79435
2.79477
2.79498
2.7959
2.79826
2.80275
2.8096
2.81683
2.82142
2.82301
1
1
1
1
1
1
1
1
1
1
1
1
1
1
1
1
1
1
1
1
1
1
1
1
1
1
1
1
1
1
1
1
1
1
1
1
1
1
1
1
1
1
1
1
1
1
1
1
1
1
1.95873
2.64736
2.68903
2.69565
2.70088
2.70388
2.70596
2.70787
2.71024
2.71344
2.71771
2.72316
2.72952
2.7358
2.74083
2.74426
2.74607
2.74695
2.74797
2.74957
2.75237
2.75607
2.7599
2.76302
2.76514
2.76657
2.76795
2.77001
2.77307
2.77669
2.78
2.78258
2.78457
2.78646
2.78846
2.79031
2.79151
2.79197
2.79222
2.79307
2.79531
2.79971
2.80655
2.81389
2.81856
2.82023
1
1
1
1
1
1
1
1
1
1
1
1
1
1
1
1
1
1
1
1
1
1
1
1
1
1
1
1
1
1
1
1
1
1
1
1
1
1
1
1
1
1
1
1
1
1
1
1
1
1
1.83832
2.62068
2.68178
2.6906
2.69737
2.70138
2.70408
2.70626
2.70846
2.71117
2.71478
2.71961
2.7257
2.73232
2.73818
2.74244
2.74481
2.74574
2.74655
2.74769
2.74981
2.75299
2.75665
2.76002
2.76257
2.76437
2.76588
2.76777
2.77048
2.77382
2.77706
2.77971
2.78177
2.78361
2.78547
2.78718
2.78835
2.78884
2.78914
2.78994
2.79203
2.79627
2.80308
2.81055
2.81542
2.81723
1
1
1
1
1
1
1
1
1
1
1
1
1
1
1
1
1
1
1
1
1
1
1
1
1
1
1
1
1
1
1
1
1
1
1
1
1
1
1
1
1
1
1
1
1
1
1
1
1
1
1.71022
2.59015
2.67504
2.68415
2.69174
2.69658
2.70024
2.70319
2.70577
2.70841
2.71155
2.71569
2.72125
2.7279
2.73445
2.73966
2.74292
2.74422
2.74496
2.74574
2.74719
2.74975
2.75309
2.75658
2.75956
2.76181
2.76355
2.76535
2.76772
2.77072
2.77382
2.77652
2.77866
2.78046
2.78216
2.78371
2.78482
2.78537
2.78575
2.78651
2.78843
2.79247
2.79917
2.80675
2.81189
2.81389
1
1
1
1
1
1
1
1
1
1
1
1
1
1
1
1
1
1
1
1
1
1
1
1
1
1
1
1
1
1
1
1
1
1
1
1
1
1
1
1
1
1
1
1
1
1
1
1
1
1
1.56232
2.54496
2.67166
2.6781
2.68487
2.69009
2.69481
2.69868
2.70198
2.70493
2.70792
2.7115
2.71634
2.72264
2.72952
2.73561
2.73997
2.74202
2.74295
2.74356
2.74447
2.74637
2.74925
2.75274
2.75609
2.75883
2.76089
2.76269
2.76478
2.76743
2.77035
2.77306
2.77528
2.77705
2.77857
2.7799
2.78091
2.7815
2.78194
2.78269
2.78446
2.78828
2.79483
2.80252
2.80795
2.81015
1
1
1
1
1
1
1
1
1
1
1
1
1
1
1
1
1
1
1
1
1
1
1
1
1
1
1
1
1
1
1
1
1
1
1
1
1
1
1
1
1
1
1
1
1
1
1
1
1
1
1.37834
2.47541
2.6717
2.67242
2.67777
2.68284
2.68813
2.69291
2.69711
2.7007
2.7039
2.70718
2.71134
2.71697
2.72371
2.73032
2.73567
2.73882
2.74028
2.74099
2.74158
2.74291
2.74525
2.74857
2.75218
2.7554
2.75786
2.75975
2.76163
2.76394
2.76663
2.7693
2.77156
2.77331
2.77466
2.77575
2.77663
2.77723
2.77773
2.77848
2.78012
2.78368
2.79005
2.79778
2.80344
2.80581
1
1
1
1
1
1
1
1
1
1
1
1
1
1
1
1
1
1
1
1
1
1
1
1
1
1
1
1
1
1
1
1
1
1
1
1
1
1
1
1
1
1
1
1
1
1
1
1
1
1
1.17351
2.39298
2.67311
2.67005
2.6739
2.67815
2.68269
2.68721
2.69176
2.69604
2.69978
2.70309
2.7067
2.71145
2.71755
2.72417
2.73015
2.73442
2.73672
2.73786
2.73839
2.73933
2.74114
2.74414
2.74784
2.75146
2.75434
2.75643
2.7582
2.76021
2.76265
2.76523
2.76751
2.76923
2.77041
2.77125
2.77193
2.77248
2.77299
2.77374
2.77527
2.77858
2.78479
2.79253
2.79838
2.80087
1
1
1
1
1
1
1
1
1
1
1
1
1
1
1
1
1
1
1
1
1
1
1
1
1
1
1
1
1
1
1
1
1
1
1
1
1
1
1
1
1
1
1
1
1
1
1
1
1
1
1.02039
2.32527
2.67267
2.66936
2.67305
2.67648
2.68025
2.68428
2.6885
2.69266
2.69647
2.6998
2.70302
2.70691
2.71199
2.71798
2.72397
2.72899
2.73223
2.73407
2.73484
2.7356
2.73697
2.73955
2.74314
2.74698
2.75025
2.75261
2.75438
2.75619
2.75839
2.76083
2.76308
2.76476
2.76579
2.76638
2.76684
2.7673
2.76779
2.76855
2.76994
2.77295
2.77894
2.78662
2.79256
2.79506
1
1
1
1
1
1
1
1
1
1
1
1
1
1
1
1
1
1
1
1
1
1
1
1
1
1
1
1
1
1
1
1
1
1
1
1
1
1
1
1
1
1
1
1
1
1
1
1
1
1
1.0002
2.22627
2.67336
2.67348
2.67574
2.67867
2.68153
2.68466
2.68808
2.69166
2.69515
2.69819
2.7009
2.70388
2.70773
2.71265
2.71806
2.72318
2.72704
2.72961
2.73087
2.73167
2.73276
2.73488
2.73816
2.74199
2.74553
2.7482
2.75009
2.75181
2.75382
2.75608
2.75822
2.75983
2.76074
2.76111
2.76131
2.76159
2.76199
2.76268
2.76386
2.7666
2.77238
2.77999
2.78601
2.7885
1
1
1
1
1
1
1
1
1
1
1
1
1
1
1
1
1
1
1
1
1
1
1
1
1
1
1
1
1
1
1
1
1
1
1
1
1
1
1
1
1
1
1
1
1
1
1
1
1
1
1
2.09266
2.66787
2.67601
2.6775
2.68029
2.68306
2.68587
2.68873
2.69176
2.69484
2.69762
2.7
2.7023
2.70512
2.70875
2.71308
2.7177
2.72172
2.72477
2.72657
2.72756
2.72853
2.73021
2.73301
2.73658
2.7402
2.74314
2.74524
2.74699
2.74889
2.75093
2.7529
2.75441
2.7552
2.75537
2.75532
2.75537
2.75565
2.75619
2.75713
2.75956
2.76501
2.7724
2.77835
2.78071
1
1
1
1
1
1
1
1
1
1
1
1
1
1
1
1
1
1
1
1
1
1
1
1
1
1
1
1
1
1
1
1
1
1
1
1
1
1
1
1
1
1
1
1
1
1
1
1
1
1
1
1.92544
2.63373
2.67403
2.67816
2.68155
2.68413
2.68653
2.68898
2.69163
2.69447
2.69707
2.69928
2.7013
2.70356
2.70646
2.7098
2.71337
2.71689
2.71988
2.72209
2.72339
2.72434
2.72563
2.72783
2.73091
2.73434
2.73742
2.73978
2.74171
2.74354
2.74532
2.74708
2.74845
2.74911
2.74908
2.74877
2.74854
2.74855
2.74878
2.74938
2.75147
2.75653
2.76369
2.7696
2.77189
1
1
1
1
1
1
1
1
1
1
1
1
1
1
1
1
1
1
1
1
1
1
1
1
1
1
1
1
1
1
1
1
1
1
1
1
1
1
1
1
1
1
1
1
1
1
1
1
1
1
1
1.73045
2.57203
2.663
2.67142
2.67717
2.68125
2.6849
2.68812
2.69115
2.69388
2.69633
2.69836
2.70018
2.70213
2.7045
2.70721
2.71011
2.71293
2.7155
2.71771
2.7192
2.72023
2.7212
2.72277
2.72515
2.72812
2.73114
2.73371
2.73584
2.73759
2.73921
2.74076
2.74194
2.74244
2.74221
2.74161
2.74102
2.74063
2.74055
2.74084
2.74249
2.74692
2.75354
2.75912
2.76111
1
1
1
1
1
1
1
1
1
1
1
1
1
1
1
1
1
1
1
1
1
1
1
1
1
1
1
1
1
1
1
1
1
1
1
1
1
1
1
1
1
1
1
1
1
1
1
1
1
1
1
1.47297
2.47209
2.65117
2.65915
2.66712
2.67277
2.67777
2.68272
2.6874
2.69131
2.69444
2.69684
2.69879
2.70071
2.7029
2.70524
2.70754
2.7097
2.71171
2.71364
2.71534
2.71625
2.71694
2.71791
2.7195
2.7218
2.72451
2.72712
2.72931
2.73103
2.73254
2.7339
2.73485
2.73514
2.7347
2.73379
2.73275
2.73175
2.73109
2.73088
2.73178
2.73536
2.74142
2.74677
2.74871
1
1
1
1
1
1
1
1
1
1
1
1
1
1
1
1
1
1
1
1
1
1
1
1
1
1
1
1
1
1
1
1
1
1
1
1
1
1
1
1
1
1
1
1
1
1
1
1
1
1
1
1.17137
2.37377
2.6464
2.64338
2.6495
2.65755
2.66571
2.67321
2.67971
2.68527
2.68966
2.69303
2.69574
2.69822
2.70071
2.7031
2.70521
2.70701
2.7086
2.71009
2.71149
2.71251
2.71292
2.7133
2.71409
2.71558
2.7177
2.72005
2.72215
2.72385
2.72527
2.72644
2.72712
2.72715
2.72651
2.72523
2.72362
2.72187
2.72034
2.71951
2.71981
2.72235
2.72718
2.73144
2.73245
1
1
1
1
1
1
1
1
1
1
1
1
1
1
1
1
1
1
1
1
1
1
1
1
1
1
1
1
1
1
1
1
1
1
1
1
1
1
1
1
1
1
1
1
1
1
1
1
1
1
1
1.00778
2.29612
2.64457
2.63793
2.64353
2.64929
2.6555
2.66236
2.66984
2.67652
2.68201
2.6865
2.69028
2.69371
2.69695
2.69986
2.70224
2.70405
2.7055
2.70681
2.70803
2.70888
2.70909
2.709
2.70908
2.70971
2.71103
2.71276
2.71457
2.71613
2.71743
2.71836
2.71874
2.7185
2.71756
2.71585
2.71356
2.71093
2.70824
2.70606
2.70496
2.70569
2.70867
2.71185
2.713
1
1
1
1
1
1
1
1
1
1
1
1
1
1
1
1
1
1
1
1
1
1
1
1
1
1
1
1
1
1
1
1
1
1
1
1
1
1
1
1
1
1
1
1
1
1
1
1
1
1
1
1.00001
2.15758
2.64402
2.64304
2.64434
2.64647
2.65056
2.65576
2.66144
2.66722
2.67281
2.67785
2.68243
2.68681
2.69104
2.69483
2.69787
2.70008
2.70173
2.7031
2.70435
2.70525
2.7054
2.70499
2.70448
2.70431
2.70467
2.70555
2.70679
2.70799
2.70903
2.70963
2.70967
2.70916
2.70784
2.70557
2.70249
2.69874
2.69455
2.69049
2.68757
2.6865
2.68701
2.68671
2.68358
1
1
1
1
1
1
1
1
1
1
1
1
1
1
1
1
1
1
1
1
1
1
1
1
1
1
1
1
1
1
1
1
1
1
1
1
1
1
1
1
1
1
1
1
1
1
1
1
1
1
1
1
1.97367
2.63345
2.64887
2.648
2.64929
2.65142
2.65347
2.65626
2.66013
2.66456
2.66908
2.67365
2.67838
2.68324
2.68781
2.69164
2.69453
2.6967
2.69844
2.69997
2.70115
2.70149
2.70105
2.70017
2.69925
2.69868
2.69872
2.69911
2.69971
2.70026
2.70041
2.70008
2.69913
2.69729
2.69435
2.69033
2.68528
2.67939
2.67303
2.66692
2.66104
2.65481
2.64821
2.64141
1
1
1
1
1
1
1
1
1
1
1
1
1
1
1
1
1
1
1
1
1
1
1
1
1
1
1
1
1
1
1
1
1
1
1
1
1
1
1
1
1
1
1
1
1
1
1
1
1
1
1
1
1.7297
2.563
2.64615
2.64846
2.65196
2.65341
2.65439
2.6558
2.65767
2.66007
2.66298
2.66633
2.67024
2.67476
2.67949
2.68379
2.68728
2.69007
2.69243
2.69445
2.69618
2.69695
2.69668
2.69573
2.69432
2.69296
2.69211
2.69165
2.69148
2.69134
2.69091
2.69002
2.68844
2.68592
2.68217
2.67708
2.67052
2.66251
2.65298
2.64217
2.63036
2.61736
2.60501
2.60045
1
1
1
1
1
1
1
1
1
1
1
1
1
1
1
1
1
1
1
1
1
1
1
1
1
1
1
1
1
1
1
1
1
1
1
1
1
1
1
1
1
1
1
1
1
1
1
1
1
1
1
1
1.39687
2.4357
2.64364
2.64398
2.64751
2.65048
2.65292
2.65476
2.65638
2.65801
2.65967
2.66157
2.66406
2.66738
2.67134
2.67536
2.67899
2.68214
2.68493
2.68756
2.68999
2.69145
2.69154
2.69077
2.68924
2.6874
2.68579
2.6845
2.68351
2.68255
2.68133
2.67966
2.67725
2.67386
2.66913
2.66279
2.65451
2.64407
2.63106
2.61517
2.59452
2.56355
2.50362
2.36766
1
1
1
1
1
1
1
1
1
1
1
1
1
1
1
1
1
1
1
1
1
1
1
1
1
1
1
1
1
1
1
1
1
1
1
1
1
1
1
1
1
1
1
1
1
1
1
1
1
1
1
1
1.04701
2.31061
2.63814
2.63487
2.63736
2.6423
2.64779
2.65137
2.65386
2.65575
2.65732
2.65873
2.66021
2.66217
2.66479
2.66779
2.67084
2.67373
2.67653
2.67945
2.68244
2.68469
2.68543
2.68494
2.68357
2.68159
2.67949
2.67752
2.6757
2.67389
2.67178
2.66915
2.66573
2.66127
2.65536
2.64762
2.63747
2.62436
2.60744
2.58494
2.55325
2.50237
2.42568
2.21506
1
1
1
1
1
1
1
1
1
1
1
1
1
1
1
1
1
1
1
1
1
1
1
1
1
1
1
1
1
1
1
1
1
1
1
1
1
1
1
1
1
1
1
1
1
1
1
1
1
1
1
1
1.00049
2.18506
2.61873
2.62075
2.62703
2.63349
2.6399
2.64491
2.64882
2.65177
2.65406
2.65577
2.6571
2.65841
2.65999
2.66183
2.66382
2.66595
2.66819
2.67085
2.6739
2.6767
2.67816
2.67804
2.67706
2.67523
2.67295
2.67053
2.66804
2.66543
2.66241
2.65873
2.65413
2.64841
2.64114
2.63183
2.61971
2.60393
2.58307
2.55499
2.51407
2.45858
2.3403
2.13765
1
1
1
1
1
1
1
1
1
1
1
1
1
1
1
1
1
1
1
1
1
1
1
1
1
1
1
1
1
1
1
1
1
1
1
1
1
1
1
1
1
1
1
1
1
1
1
1
1
1
1
1
0.999996
1.9823
2.59959
2.62344
2.62717
2.63053
2.63363
2.63776
2.64199
2.64578
2.64904
2.65161
2.65347
2.65489
2.65612
2.65722
2.65826
2.65943
2.66073
2.66259
2.66507
2.66779
2.66969
2.67009
2.6695
2.66801
2.66581
2.6632
2.66027
2.65696
2.65308
2.64838
2.64258
2.6355
2.62674
2.61577
2.60165
2.58341
2.55906
2.52663
2.48005
2.41207
2.28774
2.10334
1
1
1
1
1
1
1
1
1
1
1
1
1
1
1
1
1
1
1
1
1
1
1
1
1
1
1
1
1
1
1
1
1
1
1
1
1
1
1
1
1
1
1
1
1
1
1
1
1
1
1
1
0.999999
1.68908
2.52807
2.6228
2.62467
2.62621
2.62868
2.63183
2.63526
2.63889
2.64255
2.64588
2.64858
2.65065
2.65218
2.6532
2.6538
2.65422
2.65466
2.6555
2.65692
2.65888
2.66059
2.66127
2.66094
2.65981
2.65786
2.65528
2.65215
2.64839
2.64381
2.6382
2.63126
2.62284
2.61251
2.59987
2.58384
2.56339
2.53635
2.50005
2.4503
2.37602
2.26135
2.11414
1
1
1
1
1
1
1
1
1
1
1
1
1
1
1
1
1
1
1
1
1
1
1
1
1
1
1
1
1
1
1
1
1
1
1
1
1
1
1
1
1
1
1
1
1
1
1
1
1
1
1
1
1
1.30876
2.40429
2.61684
2.61518
2.61804
2.62284
2.6263
2.62928
2.63237
2.63574
2.63922
2.64246
2.64519
2.64735
2.6488
2.64947
2.64956
2.6495
2.6495
2.64978
2.65059
2.6515
2.65193
2.65164
2.65068
2.64897
2.64656
2.64343
2.63946
2.63439
2.62804
2.62011
2.61048
2.5987
2.58445
2.5667
2.54435
2.51538
2.47675
2.42485
2.3513
2.25187
2.12917
1
1
1
1
1
1
1
1
1
1
1
1
1
1
1
1
1
1
1
1
1
1
1
1
1
1
1
1
1
1
1
1
1
1
1
1
1
1
1
1
1
1
1
1
1
1
1
1
1
1
1
1
1
1.02589
2.27717
2.61687
2.61197
2.6132
2.61703
2.62044
2.62325
2.62598
2.62897
2.63227
2.63563
2.6387
2.6414
2.64342
2.64458
2.6449
2.64471
2.64424
2.64371
2.64342
2.64323
2.64287
2.64214
2.64097
2.63927
2.63697
2.63392
2.62992
2.62462
2.61781
2.60916
2.59854
2.58554
2.56987
2.55063
2.52676
2.49649
2.45713
2.40431
2.33599
2.24886
2.1437
1
1
1
1
1
1
1
1
1
1
1
1
1
1
1
1
1
1
1
1
1
1
1
1
1
1
1
1
1
1
1
1
1
1
1
1
1
1
1
1
1
1
1
1
1
1
1
1
1
1
1
1
1
1.00012
2.08894
2.59311
2.60309
2.60731
2.61091
2.61396
2.61685
2.61961
2.62246
2.62553
2.62869
2.6317
2.63455
2.63694
2.63869
2.63956
2.63951
2.639
2.63808
2.63699
2.63582
2.63446
2.63291
2.63117
2.62914
2.62673
2.62369
2.61971
2.61437
2.60734
2.59827
2.58696
2.57307
2.55627
2.53587
2.51087
2.47987
2.44052
2.38901
2.32662
2.25025
2.15938
1
1
1
1
1
1
1
1
1
1
1
1
1
1
1
1
1
1
1
1
1
1
1
1
1
1
1
1
1
1
1
1
1
1
1
1
1
1
1
1
1
1
1
1
1
1
1
1
1
1
1
1
1
0.999999
1.80392
2.5466
2.60274
2.60376
2.60631
2.60879
2.61128
2.61379
2.61641
2.61921
2.62198
2.6247
2.62738
2.62982
2.6319
2.6333
2.63368
2.63335
2.63242
2.63097
2.62914
2.62695
2.62448
2.62187
2.61917
2.61628
2.61296
2.60886
2.60349
2.59641
2.58722
2.57559
2.56124
2.54374
2.52258
2.49684
2.46572
2.42656
2.37824
2.32148
2.25258
2.17502
1
1
1
1
1
1
1
1
1
1
1
1
1
1
1
1
1
1
1
1
1
1
1
1
1
1
1
1
1
1
1
1
1
1
1
1
1
1
1
1
1
1
1
1
1
1
1
1
1
1
1
1
1
1
1.40587
2.42842
2.59734
2.59684
2.59989
2.60325
2.60593
2.60835
2.61077
2.61326
2.61562
2.61795
2.62029
2.62251
2.62455
2.62621
2.62704
2.62692
2.62619
2.62475
2.62263
2.61993
2.61676
2.61333
2.60977
2.60613
2.6022
2.59771
2.59216
2.58506
2.5759
2.56428
2.54985
2.53215
2.51068
2.48466
2.45384
2.41528
2.37051
2.31861
2.25583
2.18968
1
1
1
1
1
1
1
1
1
1
1
1
1
1
1
1
1
1
1
1
1
1
1
1
1
1
1
1
1
1
1
1
1
1
1
1
1
1
1
1
1
1
1
1
1
1
1
1
1
1
1
1
1
1
1.04444
2.28601
2.59919
2.59411
2.59502
2.59735
2.59988
2.60234
2.60476
2.60708
2.60922
2.61128
2.61332
2.61527
2.61708
2.61868
2.61971
2.61976
2.61924
2.61797
2.61588
2.61305
2.60956
2.60557
2.60123
2.59671
2.59192
2.58671
2.58067
2.57335
2.56422
2.55278
2.53858
2.52111
2.49988
2.4741
2.44395
2.40647
2.365
2.31721
2.26024
2.20225
1
1
1
1
1
1
1
1
1
1
1
1
1
1
1
1
1
1
1
1
1
1
1
1
1
1
1
1
1
1
1
1
1
1
1
1
1
1
1
1
1
1
1
1
1
1
1
1
1
1
1
1
1
1
1.00038
2.08983
2.56994
2.58186
2.58864
2.59188
2.59391
2.59617
2.59853
2.60076
2.60273
2.60458
2.6064
2.60812
2.60964
2.61097
2.61193
2.61206
2.61164
2.61055
2.60865
2.60593
2.60242
2.59819
2.59333
2.58805
2.58238
2.57631
2.56952
2.56173
2.55243
2.54114
2.5273
2.51032
2.48972
2.46478
2.43558
2.39968
2.36136
2.31658
2.26501
2.21256
1
1
1
1
1
1
1
1
1
1
1
1
1
1
1
1
1
1
1
1
1
1
1
1
1
1
1
1
1
1
1
1
1
1
1
1
1
1
1
1
1
1
1
1
1
1
1
1
1
1
1
1
1
1
0.999998
1.75439
2.50953
2.58161
2.58411
2.58547
2.58785
2.59026
2.59256
2.59456
2.59632
2.59795
2.59953
2.60101
2.60228
2.60332
2.60404
2.60408
2.60366
2.60263
2.60087
2.59835
2.595
2.5908
2.58576
2.58001
2.57365
2.56674
2.5591
2.55058
2.54084
2.52948
2.51593
2.49951
2.47978
2.45611
2.42787
2.39452
2.35912
2.31646
2.26982
2.2215
1
1
1
1
1
1
1
1
1
1
1
1
1
1
1
1
1
1
1
1
1
1
1
1
1
1
1
1
1
1
1
1
1
1
1
1
1
1
1
1
1
1
1
1
1
1
1
1
1
1
1
1
1
1
0.999999
1.29798
2.38288
2.5768
2.57313
2.57563
2.57981
2.58314
2.5858
2.58781
2.58956
2.59107
2.59246
2.59372
2.59477
2.59556
2.59607
2.59601
2.59553
2.59451
2.59283
2.59044
2.58725
2.58317
2.57814
2.57223
2.56549
2.55795
2.54957
2.54031
2.52991
2.51821
2.50472
2.48874
2.46989
2.44736
2.42061
2.39072
2.3571
2.31599
2.27464
2.22976
1
1
1
1
1
1
1
1
1
1
1
1
1
1
1
1
1
1
1
1
1
1
1
1
1
1
1
1
1
1
1
1
1
1
1
1
1
1
1
1
1
1
1
1
1
1
1
1
1
1
1
1
1
1
1
1.02184
2.24689
2.56628
2.56272
2.56671
2.57145
2.57536
2.57844
2.58074
2.58267
2.58419
2.58544
2.58644
2.58725
2.58781
2.58815
2.58802
2.58747
2.58641
2.58473
2.58234
2.57916
2.57514
2.5702
2.56435
2.55755
2.54974
2.54089
2.53102
2.51997
2.50771
2.49398
2.4782
2.46
2.43849
2.41387
2.3865
2.35387
2.31636
2.2799
2.23724
1
1
1
1
1
1
1
1
1
1
1
1
1
1
1
1
1
1
1
1
1
1
1
1
1
1
1
1
1
1
1
1
1
1
1
1
1
1
1
1
1
1
1
1
1
1
1
1
1
1
1
1
1
1
1
1.00007
1.98421
2.53406
2.55718
2.56257
2.56601
2.56891
2.5712
2.5735
2.57557
2.57715
2.57833
2.57907
2.57962
2.57996
2.58017
2.58002
2.57946
2.57842
2.57674
2.57431
2.57105
2.56696
2.56203
2.55626
2.54957
2.54178
2.5328
2.52256
2.51102
2.49825
2.48417
2.4682
2.4505
2.42989
2.40676
2.38106
2.35056
2.31789
2.28379
2.24282
1
1
1
1
1
1
1
1
1
1
1
1
1
1
1
1
1
1
1
1
1
1
1
1
1
1
1
1
1
1
1
1
1
1
1
1
1
1
1
1
1
1
1
1
1
1
1
1
1
1
1
1
1
1
1
1
1.5485
2.4417
2.56107
2.56
2.56079
2.56254
2.56436
2.5663
2.56827
2.56991
2.57112
2.57175
2.57211
2.57225
2.5723
2.57214
2.57158
2.57056
2.56888
2.56638
2.56297
2.55872
2.55368
2.54791
2.54132
2.5337
2.52487
2.51463
2.50291
2.4898
2.47539
2.45905
2.44181
2.42144
2.39934
2.37566
2.34752
2.31787
2.28471
2.24779
1
1
1
1
1
1
1
1
1
1
1
1
1
1
1
1
1
1
1
1
1
1
1
1
1
1
1
1
1
1
1
1
1
1
1
1
1
1
1
1
1
1
1
1
1
1
1
1
1
1
1
1
1
1
1
1
1.0811
2.29067
2.56166
2.55409
2.55453
2.55599
2.5577
2.55923
2.56092
2.56248
2.56377
2.56448
2.56475
2.56473
2.56464
2.56438
2.56379
2.56277
2.56108
2.55856
2.55505
2.55063
2.5454
2.5395
2.53288
2.52542
2.51684
2.50687
2.49532
2.4822
2.46757
2.45114
2.43384
2.41348
2.39292
2.37043
2.34347
2.31595
2.28544
2.25373
1
1
1
1
1
1
1
1
1
1
1
1
1
1
1
1
1
1
1
1
1
1
1
1
1
1
1
1
1
1
1
1
1
1
1
1
1
1
1
1
1
1
1
1
1
1
1
1
1
1
1
1
1
1
1
1
1.00143
2.08408
2.52837
2.54009
2.54747
2.5509
2.55212
2.55292
2.55401
2.55522
2.55642
2.55722
2.55753
2.55746
2.55724
2.55682
2.5561
2.55499
2.55326
2.55072
2.54718
2.54266
2.53726
2.53114
2.52438
2.51692
2.50857
2.49896
2.48785
2.47502
2.46054
2.44423
2.42653
2.4069
2.38749
2.36454
2.3389
2.31428
2.28666
2.25744
1
1
1
1
1
1
1
1
1
1
1
1
1
1
1
1
1
1
1
1
1
1
1
1
1
1
1
1
1
1
1
1
1
1
1
1
1
1
1
1
1
1
1
1
1
1
1
1
1
1
1
1
1
1
1
1
0.999991
1.66258
2.45034
2.54266
2.54287
2.54431
2.54627
2.54717
2.54782
2.54857
2.54946
2.55019
2.55052
2.55042
2.55006
2.54945
2.54854
2.54728
2.54544
2.54287
2.53934
2.53481
2.52929
2.523
2.51603
2.50847
2.50022
2.49091
2.48033
2.468
2.454
2.43797
2.42046
2.4018
2.38201
2.35894
2.33625
2.31314
2.28651
2.25833
1
1
1
1
1
1
1
1
1
1
1
1
1
1
1
1
1
1
1
1
1
1
1
1
1
1
1
1
1
1
1
1
1
1
1
1
1
1
1
1
1
1
1
1
1
1
1
1
1
1
1
1
1
1
1
1
0.999998
1.12102
2.30242
2.54156
2.53382
2.53538
2.53791
2.53999
2.54107
2.54193
2.54267
2.54323
2.54347
2.5433
2.54282
2.54203
2.54093
2.53948
2.5375
2.53489
2.5314
2.52692
2.52142
2.51504
2.50794
2.50023
2.49194
2.48279
2.47268
2.46081
2.44747
2.43209
2.41522
2.3969
2.37695
2.35546
2.33441
2.31083
2.28465
2.25865
1
1
1
1
1
1
1
1
1
1
1
1
1
1
1
1
1
1
1
1
1
1
1
1
1
1
1
1
1
1
1
1
1
1
1
1
1
1
1
1
1
1
1
1
1
1
1
1
1
1
1
1
1
1
1
1
1
1.00337
2.11671
2.51024
2.51584
2.52328
2.52956
2.53206
2.53378
2.53511
2.53595
2.5364
2.53642
2.53611
2.53544
2.53446
2.53319
2.53159
2.52951
2.52687
2.52343
2.51905
2.51363
2.5073
2.50018
2.4924
2.48404
2.47491
2.46511
2.45352
2.44092
2.42636
2.41003
2.39236
2.37346
2.35324
2.3318
2.30772
2.28375
2.26018
1
1
1
1
1
1
1
1
1
1
1
1
1
1
1
1
1
1
1
1
1
1
1
1
1
1
1
1
1
1
1
1
1
1
1
1
1
1
1
1
1
1
1
1
1
1
1
1
1
1
1
1
1
1
1
1
1
0.999984
1.69381
2.4407
2.51863
2.51926
2.52108
2.52407
2.52667
2.52831
2.52926
2.52962
2.52936
2.52874
2.52778
2.52658
2.52514
2.52341
2.52126
2.51863
2.51528
2.51105
2.50581
2.49966
2.49266
2.48491
2.47653
2.46738
2.45762
2.44619
2.43423
2.42021
2.40472
2.38844
2.37035
2.35014
2.32871
2.30673
2.28423
2.26147
1
1
1
1
1
1
1
1
1
1
1
1
1
1
1
1
1
1
1
1
1
1
1
1
1
1
1
1
1
1
1
1
1
1
1
1
1
1
1
1
1
1
1
1
1
1
1
1
1
1
1
1
1
1
1
1
1
0.999996
1.13129
2.29499
2.52043
2.51148
2.51254
2.51495
2.51824
2.52032
2.52175
2.52242
2.5221
2.52128
2.52005
2.51857
2.5169
2.51503
2.51284
2.51026
2.50702
2.50299
2.498
2.49211
2.48533
2.47776
2.46944
2.46029
2.45044
2.43928
2.42759
2.41394
2.39965
2.38439
2.36647
2.34684
2.32716
2.3067
2.28453
2.26193
1
1
1
1
1
1
1
1
1
1
1
1
1
1
1
1
1
1
1
1
1
1
1
1
1
1
1
1
1
1
1
1
1
1
1
1
1
1
1
1
1
1
1
1
1
1
1
1
1
1
1
1
1
1
1
1
1
0.999999
1.00397
2.09734
2.48978
2.49354
2.49964
2.5066
2.50978
2.51187
2.5137
2.51484
2.51463
2.51381
2.5124
2.51062
2.50864
2.50653
2.50421
2.50164
2.4985
2.4947
2.49
2.48446
2.47799
2.47069
2.46254
2.4534
2.44353
2.43265
2.42092
2.40786
2.39452
2.37942
2.36206
2.34413
2.32618
2.30607
2.28392
2.26194
1
1
1
1
1
1
1
1
1
1
1
1
1
1
1
1
1
1
1
1
1
1
1
1
1
1
1
1
1
1
1
1
1
1
1
1
1
1
1
1
1
1
1
1
1
1
1
1
1
1
1
1
1
1
1
1
1
1
0.999985
1.63679
2.41071
2.49639
2.4984
2.50111
2.50211
2.5038
2.50569
2.50709
2.50715
2.50653
2.50513
2.5031
2.50075
2.49826
2.49566
2.49296
2.48989
2.48629
2.48189
2.47673
2.47061
2.4637
2.4557
2.44666
2.43696
2.4263
2.41465
2.40228
2.38919
2.37419
2.35803
2.34179
2.3244
2.30424
2.28345
2.26302
1
1
1
1
1
1
1
1
1
1
1
1
1
1
1
1
1
1
1
1
1
1
1
1
1
1
1
1
1
1
1
1
1
1
1
1
1
1
1
1
1
1
1
1
1
1
1
1
1
1
1
1
1
1
1
1
1
1
0.999996
1.10826
2.2585
2.49895
2.4926
2.49184
2.49314
2.49504
2.49686
2.49841
2.4991
2.49882
2.49775
2.49581
2.49327
2.4904
2.48739
2.48437
2.48118
2.47767
2.47354
2.4687
2.46305
2.45642
2.44866
2.4399
2.43048
2.42004
2.4087
2.39672
2.38357
2.36919
2.35432
2.3387
2.32113
2.30203
2.28359
2.26454
1
1
1
1
1
1
1
1
1
1
1
1
1
1
1
1
1
1
1
1
1
1
1
1
1
1
1
1
1
1
1
1
1
1
1
1
1
1
1
1
1
1
1
1
1
1
1
1
1
1
1
1
1
1
1
1
1
1
0.999999
1.0025
2.00048
2.46291
2.47477
2.48167
2.4855
2.48749
2.48878
2.49005
2.49106
2.4911
2.49042
2.48874
2.48621
2.4831
2.47967
2.47617
2.47267
2.46909
2.46514
2.46058
2.45527
2.44888
2.44158
2.43322
2.42413
2.41399
2.40303
2.3912
2.37829
2.36477
2.35044
2.33478
2.31763
2.3005
2.28368
2.26509
1
1
1
1
1
1
1
1
1
1
1
1
1
1
1
1
1
1
1
1
1
1
1
1
1
1
1
1
1
1
1
1
1
1
1
1
1
1
1
1
1
1
1
1
1
1
1
1
1
1
1
1
1
1
1
1
1
1
1
0.999992
1.45577
2.35831
2.47654
2.47559
2.47746
2.47881
2.47997
2.48122
2.48243
2.48295
2.48258
2.48132
2.47913
2.47612
2.47247
2.46851
2.46456
2.46069
2.45668
2.45228
2.44724
2.44126
2.43431
2.42635
2.41763
2.40789
2.39726
2.38565
2.37335
2.36032
2.34592
2.33057
2.31462
2.29901
2.28289
2.26435
1
1
1
1
1
1
1
1
1
1
1
1
1
1
1
1
1
1
1
1
1
1
1
1
1
1
1
1
1
1
1
1
1
1
1
1
1
1
1
1
1
1
1
1
1
1
1
1
1
1
1
1
1
1
1
1
1
1
1
0.999998
1.05034
2.19924
2.46888
2.46771
2.46914
2.46946
2.4705
2.47181
2.47312
2.47395
2.47387
2.47315
2.47155
2.46898
2.46551
2.46137
2.45706
2.4528
2.44855
2.44413
2.43924
2.43362
2.42703
2.41946
2.41113
2.40183
2.39154
2.38037
2.36869
2.35579
2.34152
2.32699
2.31202
2.29702
2.28088
2.26274
1
1
1
1
1
1
1
1
1
1
1
1
1
1
1
1
1
1
1
1
1
1
1
1
1
1
1
1
1
1
1
1
1
1
1
1
1
1
1
1
1
1
1
1
1
1
1
1
1
1
1
1
1
1
1
1
1
1
1
1
1.00043
1.80715
2.41563
2.45906
2.46162
2.46201
2.46318
2.46405
2.46459
2.46496
2.46496
2.46461
2.46357
2.46159
2.45856
2.45456
2.45009
2.44546
2.44086
2.4362
2.43129
2.42585
2.41962
2.41247
2.40453
2.39564
2.38576
2.37518
2.3639
2.35108
2.33739
2.32382
2.30933
2.29426
2.27825
2.2614
1
1
1
1
1
1
1
1
1
1
1
1
1
1
1
1
1
1
1
1
1
1
1
1
1
1
1
1
1
1
1
1
1
1
1
1
1
1
1
1
1
1
1
1
1
1
1
1
1
1
1
1
1
1
1
1
1
1
1
1
0.999999
1.18506
2.27953
2.46741
2.45732
2.45671
2.45593
2.45583
2.45521
2.45505
2.45521
2.45525
2.45485
2.45359
2.45122
2.44771
2.44341
2.43865
2.43377
2.42883
2.42375
2.41832
2.4123
2.40552
2.39795
2.38946
2.38006
2.37004
2.35906
2.34654
2.3337
2.32073
2.30648
2.29144
2.27616
2.26068
1
1
1
1
1
1
1
1
1
1
1
1
1
1
1
1
1
1
1
1
1
1
1
1
1
1
1
1
1
1
1
1
1
1
1
1
1
1
1
1
1
1
1
1
1
1
1
1
1
1
1
1
1
1
1
1
1
1
1
1
1
1.00758
2.0682
2.44146
2.44095
2.44394
2.4467
2.44742
2.44657
2.44622
2.44627
2.44634
2.44615
2.44532
2.44352
2.44061
2.4367
2.43209
2.4271
2.42191
2.41657
2.41099
2.40502
2.39848
2.39124
2.38319
2.3743
2.36473
2.35411
2.34222
2.33009
2.31741
2.30338
2.28882
2.27466
2.26012
1
1
1
1
1
1
1
1
1
1
1
1
1
1
1
1
1
1
1
1
1
1
1
1
1
1
1
1
1
1
1
1
1
1
1
1
1
1
1
1
1
1
1
1
1
1
1
1
1
1
1
1
1
1
1
1
1
1
1
1
1
0.999995
1.53202
2.35309
2.44189
2.44087
2.44032
2.43901
2.43841
2.43849
2.43843
2.43831
2.43794
2.43715
2.43569
2.4333
2.4299
2.42563
2.42077
2.41548
2.40991