/*--------------------------------*- C++ -*----------------------------------*\
  =========                 |
  \\      /  F ield         | OpenFOAM: The Open Source CFD Toolbox
   \\    /   O peration     | Website:  https://openfoam.org
    \\  /    A nd           | Version:  7
     \\/     M anipulation  |
\*---------------------------------------------------------------------------*/
FoamFile
{
    version     2.0;
    format      ascii;
    class       volVectorField;
    location    "2.3";
    object      U;
}
// * * * * * * * * * * * * * * * * * * * * * * * * * * * * * * * * * * * * * //

dimensions      [0 1 -1 0 0 0 0];

internalField   nonuniform List<vector> 
64512
(
(3 -4.23469e-17 0)
(3 -5.51741e-17 0)
(3 -3.90218e-17 0)
(3 -3.77482e-17 0)
(3 -5.74039e-17 0)
(3 1.05677e-16 0)
(3 -2.33189e-16 0)
(3 -1.49456e-16 0)
(3 3.98497e-16 0)
(3 8.43528e-16 0)
(3 5.77671e-16 0)
(3 7.19712e-16 0)
(3 4.31322e-17 0)
(3 -1.15063e-17 0)
(3 -1.78894e-16 0)
(3 -4.09434e-16 0)
(3 6.9878e-17 0)
(3 8.43739e-16 0)
(3 1.15575e-15 0)
(3 9.13621e-16 0)
(3 7.01031e-16 0)
(3 7.32572e-16 0)
(3 9.41053e-16 0)
(3 8.6297e-16 0)
(3 4.83442e-16 0)
(3 9.11655e-17 0)
(3 -7.22755e-16 0)
(3 -1.00848e-15 0)
(3 -1.2338e-15 0)
(3 -1.43456e-15 0)
(3 -8.63065e-16 0)
(3 -7.96645e-16 0)
(3 -1.02934e-15 0)
(3 -1.34125e-15 0)
(3 -6.76325e-16 0)
(3 -1.71956e-16 0)
(3 1.07321e-15 0)
(3 8.83929e-16 0)
(3 2.22484e-16 0)
(3 -5.16673e-18 0)
(3 -5.45712e-16 0)
(3 -6.17015e-16 0)
(3 -8.5174e-16 0)
(3 -3.06216e-16 0)
(3 2.3429e-16 0)
(3 3.09407e-16 0)
(3 4.70658e-16 0)
(3 4.40356e-16 0)
(3 4.00175e-16 0)
(2.43104 0.00285186 0)
(0.880421 0.00483658 0)
(0.746915 0.00617537 0)
(0.732548 0.00591941 0)
(0.717782 0.0059997 0)
(0.704372 0.00644509 0)
(0.689952 0.00706332 0)
(0.673931 0.00768912 0)
(0.656019 0.00795729 0)
(0.637439 0.00750293 0)
(0.620034 0.00660022 0)
(0.604643 0.00604953 0)
(0.590568 0.00622696 0)
(0.576505 0.00686476 0)
(0.561638 0.00739273 0)
(0.546123 0.00731845 0)
(0.530552 0.00687087 0)
(0.515004 0.00670493 0)
(0.499126 0.00707716 0)
(0.482715 0.00766878 0)
(0.466193 0.00784411 0)
(0.450445 0.00748939 0)
(0.435473 0.0072518 0)
(0.420146 0.00736208 0)
(0.404019 0.00739665 0)
(0.387894 0.00713515 0)
(0.372554 0.00689598 0)
(0.357779 0.00697446 0)
(0.342819 0.00731107 0)
(0.32756 0.00764784 0)
(0.312042 0.00784797 0)
(0.29628 0.00800099 0)
(0.280206 0.00819776 0)
(0.263563 0.00839975 0)
(0.246159 0.00855381 0)
(0.228064 0.00865933 0)
(0.209587 0.00879288 0)
(0.191035 0.00899134 0)
(0.172606 0.00921893 0)
(0.154463 0.00938058 0)
(0.136449 0.00958787 0)
(0.117569 0.00976505 0)
(0.0981524 0.0100257 0)
(0.0773325 0.0102871 0)
(0.0555975 0.0105628 0)
(0.0332484 0.0106855 0)
(0.011522 0.0108029 0)
(3 -4.52404e-17 0)
(3 -2.65191e-16 0)
(3 -4.23905e-16 0)
(3 3.48006e-17 0)
(3 2.91577e-16 0)
(3 2.82078e-16 0)
(3 -2.32784e-16 0)
(3 -4.15941e-16 0)
(3 1.56205e-16 0)
(3 5.92295e-16 0)
(3 1.71249e-16 0)
(3 3.52415e-16 0)
(3 2.01556e-17 0)
(3 -1.16401e-16 0)
(3 -7.32762e-16 0)
(3 -1.20547e-15 0)
(3 -6.03861e-16 0)
(3 6.63007e-16 0)
(3 1.90842e-15 0)
(3 2.36309e-15 0)
(3 1.36543e-15 0)
(3 8.85232e-16 0)
(3 1.58109e-15 0)
(3 1.74986e-15 0)
(3 1.35999e-15 0)
(3 1.76887e-16 0)
(3 -1.18816e-15 0)
(3 -9.54311e-16 0)
(3 -1.22228e-15 0)
(3 -1.3339e-15 0)
(3 -1.24865e-16 0)
(3 -5.51904e-16 0)
(3 -1.09369e-15 0)
(3 -1.74268e-15 0)
(3 -1.12834e-15 0)
(3 -2.3475e-16 0)
(3 5.81927e-16 0)
(3 1.25211e-15 0)
(3 1.44256e-15 0)
(3 3.62877e-16 0)
(3 -1.83093e-16 0)
(3 -1.54446e-16 0)
(3 -1.71932e-16 0)
(3 4.37528e-16 0)
(3 1.87777e-15 0)
(3 1.7085e-15 0)
(3 1.3811e-15 0)
(3 1.04779e-15 0)
(3 8.0643e-16 0)
(2.4389 0.0139392 0)
(0.879658 0.0203796 0)
(0.742914 0.0205452 0)
(0.728101 0.0165988 0)
(0.713204 0.0165653 0)
(0.699689 0.0178104 0)
(0.685347 0.0197518 0)
(0.669629 0.0217534 0)
(0.652224 0.0227598 0)
(0.634198 0.0217948 0)
(0.617095 0.0195156 0)
(0.601529 0.017913 0)
(0.587094 0.0182206 0)
(0.572844 0.0198653 0)
(0.558022 0.0212638 0)
(0.54272 0.0211525 0)
(0.527276 0.0201426 0)
(0.511575 0.0198246 0)
(0.49549 0.0208794 0)
(0.479042 0.0224525 0)
(0.462696 0.0227684 0)
(0.447327 0.0216883 0)
(0.432706 0.0211054 0)
(0.41766 0.0216488 0)
(0.401674 0.0220185 0)
(0.385513 0.0214929 0)
(0.369972 0.0208902 0)
(0.354943 0.0210475 0)
(0.339833 0.0218919 0)
(0.324525 0.0227392 0)
(0.309034 0.0232586 0)
(0.293316 0.0237295 0)
(0.277277 0.0243786 0)
(0.260685 0.0250437 0)
(0.243378 0.0255522 0)
(0.22543 0.0259105 0)
(0.207133 0.0263505 0)
(0.188779 0.0269755 0)
(0.170576 0.0276741 0)
(0.152706 0.0281663 0)
(0.135027 0.0287984 0)
(0.116502 0.0293495 0)
(0.0974703 0.0301622 0)
(0.0769828 0.0309889 0)
(0.055491 0.0318702 0)
(0.0332875 0.0322918 0)
(0.0115756 0.0327344 0)
(3 6.35825e-17 0)
(3 -2.04305e-17 0)
(3 1.454e-16 0)
(3 4.72848e-16 0)
(3 8.87345e-16 0)
(3 1.18174e-15 0)
(3 1.02206e-15 0)
(3 7.62841e-16 0)
(3 -4.80698e-16 0)
(3 -1.02968e-15 0)
(3 -6.94532e-16 0)
(3 -1.09047e-15 0)
(3 -1.122e-15 0)
(3 -6.19481e-16 0)
(3 -2.08089e-16 0)
(3 -5.41374e-16 0)
(3 -1.94909e-16 0)
(3 9.58341e-16 0)
(3 1.45506e-15 0)
(3 1.07466e-15 0)
(3 7.55845e-16 0)
(3 8.32943e-16 0)
(3 4.68251e-16 0)
(3 2.41837e-16 0)
(3 -1.44906e-17 0)
(3 -4.08871e-16 0)
(3 -6.9781e-16 0)
(3 -1.00833e-15 0)
(3 -7.82689e-16 0)
(3 -1.36146e-15 0)
(3 -1.1726e-15 0)
(3 -7.95401e-16 0)
(3 -8.64636e-16 0)
(3 -6.22369e-16 0)
(3 -8.16383e-17 0)
(3 8.35933e-16 0)
(3 5.03369e-16 0)
(3 5.46503e-16 0)
(3 1.00591e-15 0)
(3 9.49151e-16 0)
(3 4.18304e-16 0)
(3 2.06221e-16 0)
(3 7.07399e-16 0)
(3 1.72693e-15 0)
(3 1.58002e-15 0)
(3 1.52266e-15 0)
(3 1.31778e-15 0)
(3 8.9746e-16 0)
(3 7.25229e-16 0)
(2.46977 0.0261238 0)
(0.887602 0.0357906 0)
(0.747018 0.0348164 0)
(0.730546 0.0295656 0)
(0.713505 0.028983 0)
(0.698705 0.0304038 0)
(0.683855 0.0330225 0)
(0.668229 0.0359309 0)
(0.651267 0.0374284 0)
(0.633803 0.0361472 0)
(0.61704 0.0330271 0)
(0.601276 0.0308389 0)
(0.586347 0.0313115 0)
(0.571722 0.0336977 0)
(0.556698 0.0355893 0)
(0.541364 0.0352729 0)
(0.525826 0.0338618 0)
(0.509775 0.0336349 0)
(0.493324 0.0354239 0)
(0.476674 0.0377578 0)
(0.460353 0.037907 0)
(0.445313 0.035885 0)
(0.43102 0.0348187 0)
(0.41634 0.0357122 0)
(0.40063 0.0364764 0)
(0.384532 0.0358936 0)
(0.368812 0.0351693 0)
(0.353447 0.0355618 0)
(0.338023 0.0369592 0)
(0.322421 0.0382795 0)
(0.306649 0.0390197 0)
(0.290636 0.0396775 0)
(0.274283 0.0406432 0)
(0.257408 0.0416531 0)
(0.239905 0.0424273 0)
(0.221867 0.0429745 0)
(0.203567 0.0436619 0)
(0.185282 0.0446444 0)
(0.167225 0.0457424 0)
(0.149597 0.0465087 0)
(0.132285 0.0475353 0)
(0.114189 0.0484485 0)
(0.0957054 0.0498112 0)
(0.0757433 0.0512204 0)
(0.0547192 0.0527559 0)
(0.0329141 0.0535615 0)
(0.0114905 0.054427 0)
(3 5.46249e-17 0)
(3 3.76227e-16 0)
(3 4.49151e-16 0)
(3 1.73544e-16 0)
(3 1.02532e-16 0)
(3 2.48869e-16 0)
(3 6.41544e-16 0)
(3 5.70593e-16 0)
(3 1.15151e-16 0)
(3 -9.51793e-16 0)
(3 -1.02926e-15 0)
(3 -1.22209e-15 0)
(3 -9.86264e-16 0)
(3 -1.52518e-16 0)
(3 6.04302e-16 0)
(3 1.08999e-15 0)
(3 1.319e-15 0)
(3 1.34825e-15 0)
(3 7.56119e-16 0)
(3 -9.07925e-16 0)
(3 -1.33564e-15 0)
(3 -1.2572e-15 0)
(3 -1.68003e-15 0)
(3 -1.8594e-15 0)
(3 -1.77705e-15 0)
(3 -1.48807e-15 0)
(3 -6.7504e-16 0)
(3 -1.36671e-15 0)
(3 -1.72316e-15 0)
(3 -1.98531e-15 0)
(3 -2.56458e-15 0)
(3 -1.67079e-15 0)
(3 -4.52286e-16 0)
(3 -1.90515e-16 0)
(3 -2.12423e-16 0)
(3 8.81054e-16 0)
(3 4.88612e-16 0)
(3 -4.35805e-17 0)
(3 -3.50613e-16 0)
(3 -5.09848e-17 0)
(3 -3.79676e-16 0)
(3 -4.1815e-16 0)
(3 2.73067e-17 0)
(3 2.49684e-16 0)
(3 -4.32116e-18 0)
(3 6.73431e-17 0)
(3 1.01941e-15 0)
(3 1.43422e-15 0)
(3 1.33918e-15 0)
(2.51228 0.0340702 0)
(0.897216 0.0487283 0)
(0.749831 0.0490688 0)
(0.733784 0.0427321 0)
(0.716317 0.0417914 0)
(0.700973 0.0430512 0)
(0.685899 0.0459727 0)
(0.670465 0.0493827 0)
(0.653932 0.0511588 0)
(0.636893 0.0497207 0)
(0.620304 0.0462916 0)
(0.604322 0.0439548 0)
(0.589034 0.0447597 0)
(0.574184 0.0477395 0)
(0.559017 0.0498993 0)
(0.543541 0.049396 0)
(0.527662 0.047835 0)
(0.511057 0.0479405 0)
(0.494133 0.0504858 0)
(0.477213 0.0533312 0)
(0.460904 0.0530139 0)
(0.446215 0.0499117 0)
(0.432185 0.0482512 0)
(0.417825 0.0494104 0)
(0.402371 0.050654 0)
(0.386274 0.0502759 0)
(0.370286 0.0497229 0)
(0.354497 0.0505567 0)
(0.338659 0.0526116 0)
(0.322622 0.0544487 0)
(0.306386 0.0554135 0)
(0.289856 0.0562276 0)
(0.272945 0.0574481 0)
(0.25554 0.0587206 0)
(0.237597 0.0596735 0)
(0.219229 0.0603262 0)
(0.200686 0.0611711 0)
(0.18222 0.0623993 0)
(0.164059 0.0637674 0)
(0.146435 0.0646778 0)
(0.129297 0.0659858 0)
(0.111474 0.067171 0)
(0.0934938 0.0690089 0)
(0.074095 0.0709774 0)
(0.0536364 0.0731888 0)
(0.0323472 0.0744453 0)
(0.0113363 0.0758246 0)
(3 -4.07317e-16 0)
(3 -2.10808e-16 0)
(3 -2.5968e-16 0)
(3 4.22054e-17 0)
(3 -9.6769e-17 0)
(3 -2.13618e-16 0)
(3 4.86299e-16 0)
(3 7.71029e-16 0)
(3 1.28786e-15 0)
(3 9.30058e-16 0)
(3 6.75348e-17 0)
(3 5.3767e-17 0)
(3 2.60586e-16 0)
(3 4.99038e-16 0)
(3 1.0853e-15 0)
(3 2.00865e-15 0)
(3 2.58386e-15 0)
(3 8.97666e-16 0)
(3 -1.67333e-16 0)
(3 -8.20214e-16 0)
(3 -1.12588e-15 0)
(3 -1.30825e-15 0)
(3 -1.49729e-15 0)
(3 -1.47217e-15 0)
(3 -1.15644e-15 0)
(3 -1.07901e-15 0)
(3 -6.72814e-16 0)
(3 -9.5173e-16 0)
(3 -1.91966e-15 0)
(3 -1.99798e-15 0)
(3 -1.64895e-15 0)
(3 -7.96113e-16 0)
(3 -7.08818e-16 0)
(3 -5.60046e-16 0)
(3 -7.82992e-16 0)
(3 -7.89054e-16 0)
(3 -7.81597e-16 0)
(3 -1.36135e-15 0)
(3 -1.87304e-15 0)
(3 -1.40575e-15 0)
(3 -7.43444e-16 0)
(3 -1.02916e-17 0)
(3 -7.35896e-17 0)
(3 -3.69723e-16 0)
(3 -3.37038e-16 0)
(3 -1.61363e-17 0)
(3 3.23078e-16 0)
(3 1.72414e-15 0)
(3 2.42989e-15 0)
(2.56378 0.040775 0)
(0.907373 0.0622296 0)
(0.750408 0.0628152 0)
(0.734919 0.055885 0)
(0.717622 0.054898 0)
(0.70231 0.0558906 0)
(0.687372 0.0587473 0)
(0.672275 0.0624455 0)
(0.656079 0.0644339 0)
(0.639206 0.0631634 0)
(0.622557 0.0597897 0)
(0.606369 0.0575425 0)
(0.590957 0.058642 0)
(0.576241 0.0620196 0)
(0.561278 0.0643238 0)
(0.545871 0.0637381 0)
(0.529787 0.0622176 0)
(0.512853 0.0627177 0)
(0.495784 0.0658617 0)
(0.47897 0.0688452 0)
(0.463118 0.0677798 0)
(0.449184 0.0635396 0)
(0.435609 0.0612223 0)
(0.421592 0.0625853 0)
(0.40629 0.0644488 0)
(0.389955 0.0646021 0)
(0.373451 0.0645299 0)
(0.357066 0.065993 0)
(0.340721 0.0687874 0)
(0.324218 0.0711739 0)
(0.307521 0.0723736 0)
(0.290488 0.0733345 0)
(0.273034 0.0747761 0)
(0.255108 0.0762615 0)
(0.236718 0.0773429 0)
(0.217989 0.0780605 0)
(0.199131 0.0790198 0)
(0.180365 0.080426 0)
(0.161915 0.0819643 0)
(0.144049 0.0828989 0)
(0.126795 0.0843491 0)
(0.109007 0.0856794 0)
(0.0913064 0.0878434 0)
(0.0723612 0.0902725 0)
(0.0524482 0.0931106 0)
(0.031694 0.09483 0)
(0.011143 0.096756 0)
(3 -4.17487e-17 0)
(3 -2.07683e-16 0)
(3 -1.2026e-16 0)
(3 2.48367e-16 0)
(3 4.29146e-16 0)
(3 8.27993e-16 0)
(3 6.00105e-16 0)
(3 5.20076e-16 0)
(3 5.47895e-16 0)
(3 3.68075e-16 0)
(3 8.45976e-17 0)
(3 -2.2715e-17 0)
(3 -1.35255e-16 0)
(3 1.02593e-16 0)
(3 3.45986e-16 0)
(3 6.79572e-16 0)
(3 1.21345e-15 0)
(3 9.26802e-16 0)
(3 1.84831e-16 0)
(3 1.23956e-16 0)
(3 2.26623e-16 0)
(3 -3.614e-16 0)
(3 -7.14414e-16 0)
(3 -7.11925e-16 0)
(3 -6.23592e-16 0)
(3 -8.03602e-16 0)
(3 -4.44225e-16 0)
(3 -3.74448e-16 0)
(3 -5.08735e-16 0)
(3 -1.17863e-15 0)
(3 -1.13915e-15 0)
(3 -1.70285e-15 0)
(3 -1.96635e-15 0)
(3 -1.65584e-15 0)
(3 -5.21191e-16 0)
(3 -7.47269e-16 0)
(3 -9.78852e-16 0)
(3 -1.36794e-15 0)
(3 -1.3145e-15 0)
(3 -1.3482e-15 0)
(3 -1.09536e-15 0)
(3 -8.77868e-16 0)
(3 8.71963e-18 0)
(3 7.85086e-17 0)
(3 9.20601e-17 0)
(3 -8.86645e-17 0)
(3 -3.09029e-16 0)
(3 1.17621e-16 0)
(3 -8.00412e-16 0)
(2.62504 0.0472686 0)
(0.921231 0.0768652 0)
(0.751307 0.075751 0)
(0.736572 0.0681956 0)
(0.719817 0.0675244 0)
(0.704672 0.0684451 0)
(0.689595 0.0713155 0)
(0.674285 0.0751816 0)
(0.657883 0.0774732 0)
(0.640823 0.0764586 0)
(0.62402 0.0732869 0)
(0.60771 0.0711688 0)
(0.592251 0.0725205 0)
(0.577633 0.0762619 0)
(0.562703 0.078863 0)
(0.547108 0.078471 0)
(0.530737 0.0770777 0)
(0.513718 0.0777854 0)
(0.497117 0.0811273 0)
(0.48128 0.0837617 0)
(0.466748 0.0817635 0)
(0.453933 0.0765386 0)
(0.440643 0.073795 0)
(0.426522 0.0756119 0)
(0.41081 0.078482 0)
(0.393676 0.0795542 0)
(0.376251 0.0801375 0)
(0.359059 0.0821986 0)
(0.342182 0.0856022 0)
(0.325363 0.0884227 0)
(0.308488 0.0897974 0)
(0.291308 0.0908706 0)
(0.273692 0.0924987 0)
(0.255596 0.0941618 0)
(0.237046 0.095349 0)
(0.218162 0.0961296 0)
(0.199117 0.0972125 0)
(0.180094 0.0987939 0)
(0.161306 0.100472 0)
(0.143046 0.101379 0)
(0.125401 0.10288 0)
(0.107411 0.104242 0)
(0.0896666 0.106562 0)
(0.0709581 0.109294 0)
(0.0514498 0.112641 0)
(0.0311241 0.114769 0)
(0.0109582 0.11721 0)
(3 1.24886e-16 0)
(3 -1.66499e-17 0)
(3 -2.17474e-16 0)
(3 -3.30019e-16 0)
(3 4.69255e-16 0)
(3 1.07598e-15 0)
(3 5.94869e-16 0)
(3 2.03687e-16 0)
(3 -4.79951e-16 0)
(3 -5.74267e-16 0)
(3 -7.83676e-17 0)
(3 -1.30814e-16 0)
(3 -5.08208e-16 0)
(3 -4.32886e-16 0)
(3 -3.10884e-16 0)
(3 -3.64967e-16 0)
(3 -4.02416e-16 0)
(3 -3.46303e-16 0)
(3 -4.69726e-16 0)
(3 -3.07349e-16 0)
(3 5.51869e-16 0)
(3 7.14766e-17 0)
(3 -3.29561e-16 0)
(3 -5.19909e-16 0)
(3 -4.45804e-16 0)
(3 -2.09149e-16 0)
(3 -2.50909e-16 0)
(3 -1.12432e-16 0)
(3 -1.48747e-16 0)
(3 -1.34719e-16 0)
(3 -3.17278e-16 0)
(3 -6.28708e-16 0)
(3 -3.78372e-16 0)
(3 -3.1312e-16 0)
(3 -1.62179e-16 0)
(3 -5.42839e-16 0)
(3 -1.46444e-15 0)
(3 -7.98343e-16 0)
(3 -5.93029e-17 0)
(3 -1.64489e-16 0)
(3 -5.96515e-16 0)
(3 -1.25685e-15 0)
(3 -8.54271e-16 0)
(3 -5.19637e-16 0)
(3 -6.89915e-16 0)
(3 -1.16229e-15 0)
(3 -1.06602e-15 0)
(3 -7.2713e-16 0)
(3 -1.28826e-15 0)
(2.69435 0.0513896 0)
(0.939791 0.0916674 0)
(0.753175 0.0883592 0)
(0.738843 0.0799264 0)
(0.722441 0.0797637 0)
(0.707215 0.0810502 0)
(0.691607 0.0842425 0)
(0.675556 0.0883895 0)
(0.658579 0.0908337 0)
(0.641274 0.0898685 0)
(0.624417 0.0867827 0)
(0.608043 0.0848168 0)
(0.592503 0.0864138 0)
(0.577905 0.0905558 0)
(0.563033 0.093602 0)
(0.547581 0.0934823 0)
(0.531743 0.0920184 0)
(0.515805 0.0924597 0)
(0.500805 0.095323 0)
(0.486618 0.097072 0)
(0.473256 0.0943617 0)
(0.460492 0.0889945 0)
(0.446495 0.0865972 0)
(0.431481 0.0893136 0)
(0.414875 0.0934021 0)
(0.39687 0.0954098 0)
(0.378778 0.0964806 0)
(0.36119 0.0988778 0)
(0.344196 0.102625 0)
(0.3274 0.105716 0)
(0.310572 0.107236 0)
(0.293361 0.108468 0)
(0.275623 0.110345 0)
(0.257346 0.112242 0)
(0.238599 0.113585 0)
(0.219521 0.114478 0)
(0.200265 0.115729 0)
(0.180973 0.117514 0)
(0.16182 0.11933 0)
(0.143104 0.120193 0)
(0.124952 0.121695 0)
(0.106588 0.123024 0)
(0.0886092 0.125365 0)
(0.0699594 0.128246 0)
(0.0507161 0.131952 0)
(0.0306987 0.134383 0)
(0.0108019 0.137252 0)
(3 1.241e-17 0)
(3 -1.57754e-16 0)
(3 -2.89683e-16 0)
(3 -4.29399e-16 0)
(3 -2.72122e-16 0)
(3 -2.44542e-16 0)
(3 -3.45709e-17 0)
(3 -8.32286e-17 0)
(3 -5.31577e-18 0)
(3 3.61076e-16 0)
(3 5.39612e-16 0)
(3 8.84729e-16 0)
(3 6.16005e-16 0)
(3 -8.96015e-16 0)
(3 -9.12841e-16 0)
(3 -9.72494e-16 0)
(3 -9.43126e-16 0)
(3 -1.08501e-15 0)
(3 -9.73748e-16 0)
(3 -8.14537e-16 0)
(3 4.32503e-17 0)
(3 9.37091e-16 0)
(3 1.32837e-15 0)
(3 1.10492e-15 0)
(3 4.37304e-16 0)
(3 3.174e-16 0)
(3 -5.59329e-16 0)
(3 -8.84512e-16 0)
(3 -7.8977e-16 0)
(3 5.2585e-17 0)
(3 3.2259e-16 0)
(3 1.61726e-15 0)
(3 2.02234e-15 0)
(3 1.76981e-15 0)
(3 1.33112e-16 0)
(3 -9.63278e-16 0)
(3 -9.25698e-16 0)
(3 -8.46297e-16 0)
(3 -9.821e-16 0)
(3 -7.43027e-16 0)
(3 -3.04106e-16 0)
(3 -1.62407e-16 0)
(3 -1.15623e-15 0)
(3 -1.14781e-15 0)
(3 -8.89601e-16 0)
(3 -9.5797e-16 0)
(3 -1.48397e-15 0)
(3 -1.45477e-15 0)
(3 -1.95126e-15 0)
(2.76571 0.0531323 0)
(0.961739 0.107158 0)
(0.754061 0.100529 0)
(0.739796 0.0911887 0)
(0.723842 0.0919156 0)
(0.708716 0.0940725 0)
(0.692792 0.0978603 0)
(0.676277 0.102268 0)
(0.659192 0.104478 0)
(0.642378 0.103183 0)
(0.626184 0.100131 0)
(0.610325 0.0983956 0)
(0.595109 0.100291 0)
(0.580778 0.104832 0)
(0.566201 0.108258 0)
(0.551247 0.108173 0)
(0.536386 0.106144 0)
(0.521716 0.105702 0)
(0.507941 0.107621 0)
(0.494533 0.108934 0)
(0.480854 0.106914 0)
(0.466843 0.102427 0)
(0.451448 0.100748 0)
(0.435185 0.104296 0)
(0.417704 0.109318 0)
(0.399142 0.111937 0)
(0.380768 0.113198 0)
(0.36308 0.115676 0)
(0.34612 0.119588 0)
(0.329386 0.12291 0)
(0.31259 0.124658 0)
(0.29535 0.126158 0)
(0.277552 0.128363 0)
(0.259216 0.130539 0)
(0.240437 0.132069 0)
(0.221356 0.133105 0)
(0.202083 0.134556 0)
(0.182693 0.136571 0)
(0.163298 0.138533 0)
(0.144182 0.139354 0)
(0.125523 0.140839 0)
(0.106678 0.142117 0)
(0.088328 0.1444 0)
(0.0695579 0.147312 0)
(0.0503962 0.151242 0)
(0.030522 0.153846 0)
(0.0107088 0.157039 0)
(3 -6.93001e-17 0)
(3 1.62686e-16 0)
(3 5.19931e-16 0)
(3 8.09785e-16 0)
(3 5.10584e-16 0)
(3 -7.32973e-16 0)
(3 -1.04619e-15 0)
(3 -6.16224e-16 0)
(3 -4.08069e-16 0)
(3 -1.57715e-16 0)
(3 1.73634e-17 0)
(3 3.01699e-16 0)
(3 6.33024e-18 0)
(3 1.70862e-16 0)
(3 6.51409e-16 0)
(3 8.22985e-16 0)
(3 2.36487e-16 0)
(3 -2.20387e-16 0)
(3 -6.77703e-16 0)
(3 -3.361e-16 0)
(3 1.14309e-16 0)
(3 1.01707e-15 0)
(3 1.54609e-15 0)
(3 1.54473e-15 0)
(3 9.72133e-16 0)
(3 2.99651e-16 0)
(3 -6.50041e-16 0)
(3 -1.1971e-15 0)
(3 -1.25102e-15 0)
(3 -5.30095e-16 0)
(3 4.74859e-16 0)
(3 1.28694e-15 0)
(3 1.43767e-15 0)
(3 5.69268e-16 0)
(3 -6.49675e-16 0)
(3 -9.9551e-16 0)
(3 -6.58588e-16 0)
(3 -8.59864e-16 0)
(3 -2.08964e-15 0)
(3 -2.10596e-15 0)
(3 -1.97462e-15 0)
(3 -1.23501e-15 0)
(3 -9.9772e-16 0)
(3 -1.51646e-15 0)
(3 -1.55001e-15 0)
(3 -9.71407e-16 0)
(3 -7.26421e-16 0)
(3 -1.4117e-15 0)
(3 -2.91763e-15 0)
(2.83567 0.0548979 0)
(0.98729 0.124601 0)
(0.756141 0.112656 0)
(0.743329 0.102414 0)
(0.728086 0.103703 0)
(0.713253 0.107065 0)
(0.697285 0.111866 0)
(0.680601 0.116333 0)
(0.66379 0.11777 0)
(0.647716 0.115801 0)
(0.632168 0.112701 0)
(0.616688 0.111331 0)
(0.601653 0.113657 0)
(0.587447 0.118604 0)
(0.573079 0.122215 0)
(0.558558 0.121819 0)
(0.544371 0.118914 0)
(0.530189 0.117561 0)
(0.516473 0.119102 0)
(0.502581 0.121192 0)
(0.487662 0.120627 0)
(0.47213 0.117192 0)
(0.45549 0.11609 0)
(0.438326 0.120199 0)
(0.420349 0.125834 0)
(0.401504 0.12881 0)
(0.382944 0.13009 0)
(0.365108 0.132503 0)
(0.348071 0.136462 0)
(0.331319 0.139987 0)
(0.314544 0.142011 0)
(0.297338 0.143831 0)
(0.279582 0.146392 0)
(0.261276 0.148875 0)
(0.242505 0.15064 0)
(0.223405 0.151894 0)
(0.204076 0.153628 0)
(0.184553 0.155944 0)
(0.164901 0.158083 0)
(0.1454 0.158874 0)
(0.126271 0.160323 0)
(0.106959 0.161539 0)
(0.0882296 0.16371 0)
(0.069287 0.166574 0)
(0.050137 0.170635 0)
(0.0303677 0.173299 0)
(0.0106086 0.176741 0)
(3 3.54421e-17 0)
(3 4.89766e-16 0)
(3 1.33139e-15 0)
(3 1.42313e-15 0)
(3 1.10847e-15 0)
(3 9.51257e-16 0)
(3 3.68381e-16 0)
(3 3.48603e-17 0)
(3 -8.51834e-16 0)
(3 -1.30083e-15 0)
(3 -1.17952e-15 0)
(3 -8.41872e-16 0)
(3 -2.683e-16 0)
(3 7.24243e-16 0)
(3 8.73251e-16 0)
(3 9.78694e-16 0)
(3 7.50225e-16 0)
(3 5.08429e-16 0)
(3 6.80735e-17 0)
(3 -9.15723e-17 0)
(3 -9.25729e-17 0)
(3 -2.08809e-16 0)
(3 -4.68371e-16 0)
(3 -6.97003e-16 0)
(3 -5.66377e-16 0)
(3 -6.01484e-16 0)
(3 -3.65349e-16 0)
(3 -1.382e-16 0)
(3 -6.15012e-16 0)
(3 -8.3874e-16 0)
(3 -4.05432e-16 0)
(3 -1.47598e-16 0)
(3 -5.01426e-16 0)
(3 -1.17141e-15 0)
(3 -1.31842e-15 0)
(3 -1.76442e-15 0)
(3 -2.57884e-15 0)
(3 -2.67504e-15 0)
(3 -1.52802e-15 0)
(3 -1.30712e-15 0)
(3 -1.75337e-15 0)
(3 -2.15737e-15 0)
(3 -1.61682e-15 0)
(3 -1.60159e-15 0)
(3 -1.91934e-15 0)
(3 -1.70647e-15 0)
(3 -8.26257e-16 0)
(3 -1.01477e-15 0)
(3 -1.31664e-15 0)
(2.90783 0.0556586 0)
(1.02144 0.140201 0)
(0.764781 0.120264 0)
(0.751935 0.111523 0)
(0.736268 0.114516 0)
(0.720907 0.119648 0)
(0.704844 0.125635 0)
(0.688329 0.129837 0)
(0.672152 0.129981 0)
(0.656685 0.127123 0)
(0.641323 0.124172 0)
(0.625821 0.123485 0)
(0.610659 0.12645 0)
(0.596257 0.13181 0)
(0.581675 0.135484 0)
(0.566901 0.134897 0)
(0.552318 0.131618 0)
(0.537521 0.129962 0)
(0.522983 0.131752 0)
(0.508141 0.135015 0)
(0.491879 0.135986 0)
(0.474859 0.133485 0)
(0.457072 0.132605 0)
(0.439213 0.136849 0)
(0.42118 0.142729 0)
(0.402628 0.145852 0)
(0.384436 0.147066 0)
(0.366885 0.149334 0)
(0.350044 0.153251 0)
(0.333416 0.156951 0)
(0.316698 0.159291 0)
(0.299507 0.161484 0)
(0.28174 0.164447 0)
(0.263385 0.16729 0)
(0.244534 0.169365 0)
(0.225341 0.17092 0)
(0.20593 0.173007 0)
(0.186324 0.175662 0)
(0.16653 0.177973 0)
(0.146797 0.178718 0)
(0.127367 0.180109 0)
(0.107659 0.181256 0)
(0.0885667 0.183273 0)
(0.0693581 0.186043 0)
(0.0500855 0.190183 0)
(0.0302806 0.192823 0)
(0.0105337 0.196475 0)
(3 9.78589e-17 0)
(3 4.61753e-16 0)
(3 8.32078e-16 0)
(3 5.48936e-16 0)
(3 2.77281e-16 0)
(3 3.50416e-16 0)
(3 1.11864e-15 0)
(3 6.88934e-16 0)
(3 -1.21129e-16 0)
(3 -9.48337e-16 0)
(3 -1.5903e-15 0)
(3 -1.20449e-15 0)
(3 -3.53415e-16 0)
(3 3.68122e-16 0)
(3 2.82723e-16 0)
(3 -3.37736e-16 0)
(3 -2.33813e-17 0)
(3 5.07555e-17 0)
(3 -3.47769e-16 0)
(3 -6.61136e-16 0)
(3 -6.34357e-16 0)
(3 -1.17589e-15 0)
(3 -1.68245e-15 0)
(3 -1.79891e-15 0)
(3 -1.5167e-15 0)
(3 -1.31211e-15 0)
(3 -5.32202e-16 0)
(3 -5.0941e-16 0)
(3 -3.51853e-16 0)
(3 -1.00222e-16 0)
(3 3.88934e-16 0)
(3 -1.07238e-16 0)
(3 7.08915e-17 0)
(3 1.9948e-16 0)
(3 1.90801e-16 0)
(3 -3.91074e-16 0)
(3 -2.05763e-15 0)
(3 -2.44305e-15 0)
(3 -1.7845e-15 0)
(3 -7.70831e-16 0)
(3 -4.19069e-16 0)
(3 -1.13005e-15 0)
(3 -1.71372e-15 0)
(3 -1.50024e-15 0)
(3 -1.23194e-15 0)
(3 -8.8647e-16 0)
(3 -9.10511e-16 0)
(3 -5.65499e-16 0)
(3 -5.29386e-16 0)
(2.96762 0.0241897 0)
(1.05597 0.153093 0)
(0.773152 0.126983 0)
(0.759995 0.122117 0)
(0.744186 0.12679 0)
(0.728403 0.132896 0)
(0.712627 0.139216 0)
(0.696466 0.142546 0)
(0.68056 0.141685 0)
(0.664936 0.138611 0)
(0.64927 0.136143 0)
(0.633556 0.136265 0)
(0.61818 0.139951 0)
(0.60336 0.145823 0)
(0.588028 0.149865 0)
(0.572033 0.149571 0)
(0.555909 0.146184 0)
(0.539588 0.14407 0)
(0.523685 0.145773 0)
(0.508124 0.149876 0)
(0.491642 0.152052 0)
(0.474866 0.150217 0)
(0.45774 0.149269 0)
(0.440706 0.153322 0)
(0.423615 0.159148 0)
(0.40582 0.162309 0)
(0.388053 0.163528 0)
(0.37062 0.165761 0)
(0.353708 0.169735 0)
(0.336926 0.173721 0)
(0.320017 0.176499 0)
(0.30265 0.179153 0)
(0.284728 0.182571 0)
(0.266215 0.185814 0)
(0.247191 0.188236 0)
(0.227822 0.190131 0)
(0.208271 0.192595 0)
(0.188572 0.195608 0)
(0.168682 0.198089 0)
(0.148804 0.198804 0)
(0.129166 0.200128 0)
(0.109072 0.20123 0)
(0.0895556 0.203127 0)
(0.0699159 0.2058 0)
(0.0503262 0.210006 0)
(0.0302948 0.212575 0)
(0.0104938 0.216437 0)
(3 -1.23217e-16 0)
(3 -1.16304e-16 0)
(3 -8.45036e-17 0)
(3 -1.5538e-16 0)
(3 -3.56513e-16 0)
(3 -4.34704e-16 0)
(3 -3.36441e-16 0)
(3 2.91726e-17 0)
(3 4.03549e-17 0)
(3 -1.50175e-16 0)
(3 2.41476e-16 0)
(3 -2.95246e-16 0)
(3 -5.27993e-16 0)
(3 -2.98461e-16 0)
(3 3.08146e-17 0)
(3 2.64602e-16 0)
(3 8.15595e-17 0)
(3 -1.56848e-17 0)
(3 -1.00331e-16 0)
(3 1.49482e-16 0)
(3 -4.16153e-17 0)
(3 -3.22553e-16 0)
(3 -3.15577e-16 0)
(3 -2.95747e-16 0)
(3 1.48e-16 0)
(3 5.55576e-16 0)
(3 8.45579e-16 0)
(3 7.29114e-16 0)
(3 2.68166e-16 0)
(3 -3.78701e-17 0)
(3 -6.4822e-16 0)
(3 6.07157e-16 0)
(3 1.01882e-15 0)
(3 1.39468e-15 0)
(3 1.15752e-15 0)
(3 9.76837e-16 0)
(3 4.71305e-16 0)
(3 2.37476e-16 0)
(3 -7.58927e-17 0)
(3 -4.48827e-16 0)
(3 -1.31715e-15 0)
(3 -1.1279e-15 0)
(3 -1.51734e-15 0)
(3 -1.75552e-15 0)
(3 -1.00921e-15 0)
(3 -4.77879e-16 0)
(3 -4.40853e-16 0)
(3 1.72509e-16 0)
(3 6.15567e-16 0)
(3.00341 0.00393388 0)
(1.10948 0.156404 0)
(0.774692 0.135447 0)
(0.756283 0.135972 0)
(0.74116 0.141435 0)
(0.726026 0.147526 0)
(0.711555 0.153826 0)
(0.696266 0.156681 0)
(0.680617 0.15534 0)
(0.664734 0.151937 0)
(0.648754 0.14948 0)
(0.632938 0.150041 0)
(0.617681 0.154252 0)
(0.603107 0.16052 0)
(0.588107 0.164879 0)
(0.572462 0.164774 0)
(0.556784 0.161133 0)
(0.540857 0.158378 0)
(0.525148 0.159827 0)
(0.509956 0.164469 0)
(0.493879 0.167556 0)
(0.477477 0.166257 0)
(0.460778 0.165193 0)
(0.44412 0.169069 0)
(0.427392 0.174974 0)
(0.409719 0.178461 0)
(0.391776 0.179996 0)
(0.373983 0.182392 0)
(0.356648 0.186505 0)
(0.339478 0.190804 0)
(0.322219 0.194043 0)
(0.304582 0.197168 0)
(0.286458 0.20103 0)
(0.267788 0.204646 0)
(0.248652 0.207374 0)
(0.229225 0.209564 0)
(0.209704 0.212366 0)
(0.190126 0.215729 0)
(0.170372 0.218405 0)
(0.15057 0.219158 0)
(0.130828 0.220429 0)
(0.110492 0.22152 0)
(0.0904935 0.223357 0)
(0.0703636 0.225911 0)
(0.0504098 0.230164 0)
(0.0301329 0.232619 0)
(0.0103869 0.23669 0)
(3 1.47721e-17 0)
(3 -3.123e-16 0)
(3 -1.27744e-15 0)
(3 -1.42251e-15 0)
(3 -1.16366e-15 0)
(3 -1.13671e-15 0)
(3 -1.08322e-15 0)
(3 -6.6606e-16 0)
(3 7.11053e-17 0)
(3 6.8636e-16 0)
(3 9.09035e-16 0)
(3 9.15758e-16 0)
(3 2.77802e-16 0)
(3 6.2635e-17 0)
(3 -4.32984e-17 0)
(3 2.23117e-16 0)
(3 -3.7352e-17 0)
(3 -4.94744e-16 0)
(3 4.02503e-16 0)
(3 1.20976e-15 0)
(3 1.11652e-15 0)
(3 1.48732e-15 0)
(3 1.53801e-15 0)
(3 1.53134e-15 0)
(3 1.85058e-15 0)
(3 2.21156e-15 0)
(3 1.92712e-15 0)
(3 1.53555e-15 0)
(3 4.6316e-16 0)
(3 9.58137e-17 0)
(3 1.64045e-16 0)
(3 4.1917e-16 0)
(3 7.2198e-16 0)
(3 5.01654e-16 0)
(3 6.27708e-16 0)
(3 1.00523e-15 0)
(3 1.64459e-15 0)
(3 1.2627e-15 0)
(3 -1.26082e-16 0)
(3 -1.07762e-15 0)
(3 -1.32025e-15 0)
(3 -1.52217e-15 0)
(3 -1.86005e-15 0)
(3 -1.85092e-15 0)
(3 -1.48016e-15 0)
(3 -1.18458e-15 0)
(3 -3.0411e-16 0)
(3 1.03488e-15 0)
(3 9.51805e-16 0)
(3.00015 1.38964e-05 0)
(1.19009 0.172731 0)
(0.771008 0.148124 0)
(0.74651 0.14541 0)
(0.733151 0.152044 0)
(0.718864 0.158847 0)
(0.705482 0.165713 0)
(0.691004 0.168757 0)
(0.675816 0.167527 0)
(0.660094 0.164116 0)
(0.644218 0.16165 0)
(0.628754 0.162504 0)
(0.614253 0.167156 0)
(0.600711 0.17386 0)
(0.586722 0.178733 0)
(0.571763 0.179163 0)
(0.556458 0.175663 0)
(0.540661 0.172541 0)
(0.524848 0.173816 0)
(0.509765 0.178912 0)
(0.493912 0.182855 0)
(0.477655 0.182161 0)
(0.461139 0.181094 0)
(0.444654 0.184854 0)
(0.428155 0.190933 0)
(0.410584 0.194853 0)
(0.392578 0.19676 0)
(0.37465 0.199314 0)
(0.357175 0.203517 0)
(0.339929 0.208085 0)
(0.322631 0.211762 0)
(0.305064 0.215338 0)
(0.287136 0.219606 0)
(0.268756 0.223534 0)
(0.249967 0.226489 0)
(0.230897 0.228894 0)
(0.211707 0.231993 0)
(0.192419 0.235748 0)
(0.172853 0.238739 0)
(0.153098 0.239699 0)
(0.133199 0.241028 0)
(0.112559 0.242164 0)
(0.0919817 0.244 0)
(0.0712556 0.246412 0)
(0.0508138 0.250687 0)
(0.030144 0.252988 0)
(0.0103531 0.25726 0)
(3 -1.90757e-16 0)
(3 -1.04412e-16 0)
(3 -2.03906e-16 0)
(3 -3.66835e-16 0)
(3 -2.75751e-16 0)
(3 -9.23222e-17 0)
(3 3.99389e-18 0)
(3 -3.33241e-16 0)
(3 -6.36814e-17 0)
(3 2.32305e-16 0)
(3 9.95609e-17 0)
(3 -8.83424e-17 0)
(3 -1.58993e-16 0)
(3 -2.58344e-16 0)
(3 -3.56113e-16 0)
(3 -5.90838e-16 0)
(3 -5.25356e-16 0)
(3 -3.82748e-16 0)
(3 5.69491e-16 0)
(3 8.646e-16 0)
(3 8.96543e-16 0)
(3 1.51764e-15 0)
(3 2.22309e-15 0)
(3 3.26026e-15 0)
(3 3.11311e-15 0)
(3 2.68222e-15 0)
(3 1.54691e-15 0)
(3 1.59696e-16 0)
(3 -1.25756e-16 0)
(3 -3.48292e-16 0)
(3 2.27194e-16 0)
(3 1.33828e-16 0)
(3 2.21642e-16 0)
(3 5.44743e-16 0)
(3 1.00055e-15 0)
(3 1.08221e-15 0)
(3 1.18308e-15 0)
(3 5.04014e-16 0)
(3 -6.16449e-17 0)
(3 -1.29234e-15 0)
(3 -1.27123e-15 0)
(3 -1.48535e-15 0)
(3 -1.94071e-15 0)
(3 -1.82854e-15 0)
(3 -1.88004e-15 0)
(3 -1.82186e-15 0)
(3 -1.22188e-15 0)
(3 -4.32306e-16 0)
(3 -3.68893e-16 0)
(3 -1.47985e-08 0)
(1.30693 0.189722 0)
(0.776434 0.165679 0)
(0.743943 0.158542 0)
(0.729216 0.164412 0)
(0.714385 0.17108 0)
(0.700763 0.177705 0)
(0.686335 0.180821 0)
(0.671151 0.179902 0)
(0.655309 0.176622 0)
(0.639303 0.173952 0)
(0.623896 0.174543 0)
(0.609799 0.179071 0)
(0.597078 0.185992 0)
(0.584083 0.191562 0)
(0.569841 0.192895 0)
(0.554954 0.189899 0)
(0.539423 0.186627 0)
(0.523648 0.187728 0)
(0.508744 0.19315 0)
(0.49321 0.19789 0)
(0.477165 0.197853 0)
(0.460935 0.196825 0)
(0.444781 0.200414 0)
(0.428729 0.206661 0)
(0.411511 0.211083 0)
(0.39368 0.213438 0)
(0.375864 0.216206 0)
(0.358516 0.220516 0)
(0.341487 0.225332 0)
(0.324463 0.229411 0)
(0.307279 0.233372 0)
(0.289823 0.237961 0)
(0.271918 0.242127 0)
(0.253522 0.245266 0)
(0.234689 0.247906 0)
(0.215571 0.251392 0)
(0.196233 0.255717 0)
(0.176496 0.259253 0)
(0.156477 0.260622 0)
(0.136239 0.262112 0)
(0.115196 0.263293 0)
(0.0940306 0.265141 0)
(0.0726858 0.267396 0)
(0.0516892 0.271703 0)
(0.0304806 0.27385 0)
(0.0104655 0.278345 0)
(3 1.98027e-17 0)
(3 -3.47182e-16 0)
(3 2.60877e-16 0)
(3 9.08558e-16 0)
(3 1.52984e-15 0)
(3 2.08677e-15 0)
(3 1.0637e-15 0)
(3 3.25089e-16 0)
(3 2.55657e-16 0)
(3 4.57828e-16 0)
(3 4.70999e-17 0)
(3 -2.40481e-16 0)
(3 -5.91361e-16 0)
(3 -7.42324e-16 0)
(3 -1.15956e-15 0)
(3 -1.19054e-15 0)
(3 -6.03933e-16 0)
(3 3.93998e-16 0)
(3 7.79963e-16 0)
(3 8.34783e-16 0)
(3 6.67034e-16 0)
(3 7.50521e-16 0)
(3 1.79873e-15 0)
(3 1.98276e-15 0)
(3 1.69335e-15 0)
(3 1.1476e-15 0)
(3 8.03636e-16 0)
(3 6.97517e-16 0)
(3 7.11976e-16 0)
(3 1.2742e-15 0)
(3 7.10332e-16 0)
(3 -8.56959e-17 0)
(3 -6.00008e-16 0)
(3 -6.86769e-16 0)
(3 -9.25472e-16 0)
(3 -2.5974e-16 0)
(3 1.79541e-16 0)
(3 8.03878e-17 0)
(3 -5.20071e-17 0)
(3 -1.0676e-15 0)
(3 -1.19898e-15 0)
(3 -9.22913e-16 0)
(3 -7.09115e-16 0)
(3 -5.28669e-16 0)
(3 -6.82482e-16 0)
(3 -1.06942e-15 0)
(3 -9.60107e-16 0)
(3 -7.75898e-16 0)
(3 -2.41311e-16 0)
(3 -3.76583e-09 0)
(1.45873 0.207322 0)
(0.788615 0.185536 0)
(0.748025 0.172928 0)
(0.731177 0.177865 0)
(0.714943 0.184009 0)
(0.700582 0.190405 0)
(0.685888 0.193609 0)
(0.67054 0.193069 0)
(0.654479 0.190105 0)
(0.638265 0.187223 0)
(0.622742 0.187251 0)
(0.608683 0.191207 0)
(0.596279 0.197937 0)
(0.583929 0.204062 0)
(0.570216 0.206388 0)
(0.55564 0.204099 0)
(0.540428 0.200799 0)
(0.524857 0.201697 0)
(0.510306 0.207298 0)
(0.49532 0.212727 0)
(0.47967 0.213361 0)
(0.463862 0.212347 0)
(0.448102 0.215658 0)
(0.432535 0.222006 0)
(0.415724 0.226962 0)
(0.398089 0.229821 0)
(0.380362 0.232837 0)
(0.36307 0.237247 0)
(0.346142 0.242269 0)
(0.32923 0.246715 0)
(0.312189 0.251048 0)
(0.294882 0.255995 0)
(0.277033 0.260514 0)
(0.258542 0.26401 0)
(0.239453 0.267068 0)
(0.219986 0.271092 0)
(0.200316 0.276107 0)
(0.180269 0.280279 0)
(0.159969 0.282087 0)
(0.139475 0.283735 0)
(0.118134 0.284915 0)
(0.0965099 0.286787 0)
(0.0746035 0.288919 0)
(0.053026 0.293307 0)