/*--------------------------------*- C++ -*----------------------------------*\
  =========                 |
  \\      /  F ield         | OpenFOAM: The Open Source CFD Toolbox
   \\    /   O peration     | Website:  https://openfoam.org
    \\  /    A nd           | Version:  7
     \\/     M anipulation  |
\*---------------------------------------------------------------------------*/
FoamFile
{
    version     2.0;
    format      ascii;
    class       volScalarField;
    location    "3.2";
    object      p;
}
// * * * * * * * * * * * * * * * * * * * * * * * * * * * * * * * * * * * * * //

dimensions      [1 -1 -2 0 0 0 0];

internalField   nonuniform List<scalar> 
4032
(
1
1
1
1
1
1
1
1
1
1
1
1.1421
7.01782
10.585
10.7377
10.9404
11.1281
11.3082
11.4756
11.6279
11.7643
11.876
11.9634
12.0272
1
1
1
1
1
1
1
1
1
1
1
1.10532
6.86859
10.5537
10.7197
10.9173
11.1036
11.2808
11.4448
11.5917
11.7205
11.8231
11.8997
11.9565
1
1
1
1
1
1
1
1
1
1
1
1.00915
6.51577
10.5056
10.6731
10.8641
11.0478
11.2202
11.3794
11.5216
11.6473
11.7483
11.8216
11.8799
1
1
1
1
1
1
1
1
1
1
1
1.00012
5.99097
10.3988
10.5947
10.78
10.9628
11.1296
11.2827
11.4179
11.5349
11.6227
11.677
11.7153
1
1
1
1
1
1
1
1
1
1
1
1
5.30203
10.2281
10.5058
10.6806
10.8573
11.0111
11.1472
11.2605
11.3534
11.4241
11.4679
11.5236
1
1
1
1
1
1
1
1
1
1
1
1
4.4721
9.95215
10.3966
10.5592
10.7222
10.8569
10.9728
11.0694
11.1467
11.2047
11.218
11.1784
1
1
1
1
1
1
1
1
1
1
1
1
3.5499
9.52246
10.3039
10.4544
10.5968
10.7019
10.7773
10.8291
10.843
10.8014
10.73
10.683
1
1
1
1
1
1
1
1
1
1
1
1
2.54846
8.8512
10.2298
10.3481
10.4605
10.5323
10.5633
10.5644
10.5064
10.418
10.28
10.2518
1
1
1
1
1
1
1
1
1
1
1
1
1.56955
7.92581
10.2037
10.2138
10.3019
10.3369
10.3211
10.2613
10.109
9.83752
9.06074
7.17719
1
1
1
1
1
1
1
1
1
1
1
1
1.04342
6.62616
10.0429
9.94168
10.0271
10.0634
10.0262
9.91063
9.6705
9.19745
8.3942
6.33443
1
1
1
1
1
1
1
1
1
1
1
1
1.00009
4.85687
9.47735
9.78903
9.86148
9.83119
9.74325
9.56339
9.2577
8.6891
7.84991
5.89712
1
1
1
1
1
1
1
1
1
1
1
1
0.999998
2.97578
8.70256
9.63977
9.63989
9.60869
9.49163
9.25546
8.88461
8.3089
7.38724
5.80121
1
1
1
1
1
1
1
1
1
1
1
1
1
1.44304
7.63535
9.73326
9.50229
9.37424
9.22051
8.95082
8.54946
7.99792
7.05905
5.85622
1
1
1
1
1
1
1
1
1
1
1
1
1
1.02153
5.82093
9.07916
9.13775
9.1037
8.95058
8.67836
8.28701
7.70874
6.8709
5.92139
1
1
1
1
1
1
1
1
1
1
1
1
1
0.999877
3.28012
8.31554
9.03341
8.96642
8.78247
8.47564
8.08604
7.50699
6.78998
6.01102
1
1
1
1
1
1
1
1
1
1
1
1
1
0.999968
1.37417
7.13347
9.08679
8.83452
8.59153
8.25408
7.87399
7.33509
6.72516
6.06495
1
1
1
1
1
1
1
1
1
1
1
1
1
0.999995
1.01285
4.91744
8.52
8.56009
8.35992
8.06439
7.69239
7.21529
6.68691
6.10511
1
1
1
1
1
1
1
1
1
1
1
1
1
1
0.999932
2.17589
7.65654
8.53249
8.23956
7.93489
7.5667
7.12677
6.64678
6.12497
1
1
1
1
1
1
1
1
1
1
1
1
1
1
0.999983
1.10801
5.67777
8.30127
8.01861
7.77668
7.44243
7.04479
6.61214
6.1468
1
1
1
1
1
1
1
1
1
1
1
1
1
1
0.999997
1.00077
2.65423
7.40173
7.9642
7.71521
7.39015
7.01999
6.62402
6.19453
1
1
1
1
1
1
1
1
1
1
1
1
1
1
1
0.999999
1.19423
5.52461
7.90321
7.64315
7.33556
6.98163
6.60708
6.20581
1
1
1
1
1
1
1
1
1
1
1
1
1
1
1
1
1.00302
2.43989
6.92002
7.5947
7.28879
6.95799
6.60317
6.22921
1
1
1
1
1
1
1
1
1
1
1
1
1
1
1
1
1.00001
1.15154
4.93101
7.53235
7.25658
6.93622
6.59112
6.2439
1
1
1
1
1
1
1
1
1
1
1
1
1
1
1
1
1
1.00209
2.07466
6.3259
7.21692
6.89508
6.5839
6.26151
1
1
1
1
1
1
1
1
1
1
1
1
1
1
1
1
1
1.00001
1.08402
3.81748
6.957
6.90671
6.6212
6.31496
1
1
1
1
1
1
1
1
1
1
1
1
1
1
1
1
1
1
1.001
1.55258
5.36224
6.93228
6.64934
6.33873
1
1
1
1
1
1
1
1
1
1
1
1
1
1
1
1
1
1
1
1.02481
2.56795
6.07315
6.6562
6.36423
1
1
1
1
1
1
1
1
1
1
1
1
1
1
1
1
1
1
1
1.00022
1.1749
3.8794
6.36585
6.41952
1
1
1
1
1
1
1
1
1
1
1
1
1
1
1
1
1
1
1
1
1.00375
1.61215
4.84988
6.35787
1
1
1
1
1
1
1
1
1
1
1
1
1
1
1
1
1
1
1
1
1.00002
1.03137
2.2778
5.42107
1
1
1
1
1
1
1
1
1
1
1
1
1
1
1
1
1
1
1
1
1
1.00036
1.12354
3.05931
1
1
1
1
1
1
1
1
1
1
1
1
1
1
1
1
1
1
1
1
1
1
1.00248
1.31928
1
1
1
1
1
1
1
1
1
1
1
1
1
1
1
1
1
1
1
1
1
1
1.00001
1.01126
1
1
1
1
1
1
1
1
1
1
1
1
1
1
1
1
1
1
1
1
1
1
1
1.0001
1
1
1
1
1
1
1
1
1
1
1
1
1
1
1
1
1
1
1
1
1
1
1
1
1
1
1
1
1
1
1
1
1
1
1
1
1
1
1
1
1
1
1
1
1
1
1
1
1
1
1
1
1
1
1
1
1
1
1
1
1
1
1
1
1
1
1
1
1
1
1
1
1
1
1
1
1
1
1
1
1
1
1
1
1
1
1
1
1
1
1
1
1
1
1
1
1
1
1
1
1
1
1
1
1
1
1
1
1
1
1
1
1
1
1
1
1
1
1
1
1
1
1
1
1
1
1
1
1
1
1
1
1
1
1
1
1
1
1
1
1
1
1
1
1.55506
0.394711
0.23809
0.180301
0.179858
0.224506
0.348912
0.470419
0.620616
0.778684
0.93878
1.0657
1.14206
1.17199
1.18945
1.22716
1.25424
1.25885
1.26413
1.28921
1.30277
1.30845
1.30699
1.29843
1.28888
1.28897
1.29577
1.31071
1.33569
1.35895
1.35428
2.64556
5.49421
6.04517
6.05746
6.11366
6.14156
6.13513
6.06073
5.95832
5.86891
5.79136
5.70723
5.60154
5.48937
5.39215
5.32303
5.28514
5.26234
5.17779
5.04377
4.89727
4.75573
4.6513
4.57699
4.55082
4.5529
4.51412
4.42205
4.30811
4.17137
4.05873
3.98425
3.92928
3.90217
3.88183
3.83381
3.76666
3.67349
3.55502
3.46369
3.40567
3.36073
3.33575
3.31578
3.27472
3.22205
3.14202
3.03361
2.95116
2.90341
2.86701
2.84166
2.83646
2.82148
2.78886
2.74662
2.67145
2.56877
2.50574
2.47533
2.45072
2.43283
2.41028
2.38167
2.30717
2.80769
1.33195
0.905858
0.727684
0.555562
0.522793
0.521777
0.517676
0.528707
0.568677
0.624228
0.718112
0.839546
0.944183
1.01233
1.06832
1.11838
1.15777
1.21405
1.24772
1.27119
1.29222
1.29959
1.29352
1.28862
1.2908
1.29989
1.31388
1.32317
1.3334
1.33831
2.34773
5.56165
6.29173
6.15577
6.12704
6.11393
6.09453
6.01081
5.9017
5.81099
5.74924
5.70993
5.65093
5.54304
5.41249
5.29007
5.19447
5.14364
5.11466
5.0534
4.95692
4.84377
4.71108
4.59689
4.51319
4.459
4.42576
4.38138
4.31011
4.22745
4.12823
4.02679
3.94841
3.88899
3.83499
3.7886
3.73878
3.67222
3.59843
3.51194
3.4274
3.36714
3.32206
3.27799
3.23781
3.19599
3.13926
3.07149
2.99803
2.92928
2.88178
2.84974
2.81987
2.79149
2.76163
2.72422
2.672
2.60219
2.53082
2.48061
2.44995
2.42428
2.39883
2.37194
2.30828
3.67835
2.4161
1.64173
1.27235
0.987089
0.817183
0.744377
0.690077
0.618988
0.609499
0.614141
0.659885
0.736196
0.800853
0.861182
0.924073
0.987655
1.05991
1.15888
1.22118
1.26582
1.30525
1.31229
1.30472
1.29305
1.30193
1.32331
1.33423
1.32872
1.33244
1.37809
2.01956
5.34069
6.65103
6.33638
6.13695
6.09241
6.08194
6.01736
5.92618
5.82336
5.73109
5.67957
5.65648
5.60847
5.51598
5.39508
5.24299
5.10846
5.01703
4.96621
4.92886
4.87498
4.7984
4.69756
4.55826
4.41461
4.32263
4.26268
4.23298
4.21764
4.17747
4.11346
4.03078
3.91483
3.79171
3.7131
3.66171
3.62921
3.60335
3.55763
3.49532
3.40679
3.30882
3.24085
3.18756
3.13553
3.09897
3.07211
3.03747
2.99309
2.9294
2.8548
2.79946
2.75996
2.72157
2.68158
2.64422
2.61094
2.57063
2.51456
2.45482
2.4123
2.37937
2.34622
2.28757
4.25807
3.15197
2.41068
1.89633
1.52007
1.24079
1.0795
0.970014
0.885406
0.823763
0.755949
0.708482
0.711636
0.714248
0.7303
0.770132
0.831659
0.918452
1.02768
1.1105
1.15245
1.19055
1.23917
1.26427
1.2752
1.30719
1.34382
1.34453
1.3412
1.39267
1.73486
2.4422
4.05162
6.01516
6.37365
6.2995
6.19209
6.05455
5.94934
5.88349
5.80413
5.71644
5.64105
5.57915
5.52514
5.458
5.37918
5.27969
5.14401
5.01439
4.93257
4.87128
4.82134
4.76436
4.68931
4.59408
4.47002
4.33973
4.25327
4.20143
4.17157
4.1491
4.10305
4.0389
3.94962
3.82676
3.70625
3.63877
3.6019
3.57413
3.54836
3.50633
3.44232
3.33734
3.21976
3.1433
3.10091
3.07298
3.05865
3.04588
3.01817
2.9763
2.90317
2.80381
2.72729
2.67922
2.64473
2.6215
2.603
2.5777
2.54298
2.48385
2.40879
2.35345
2.3189
2.27476
4.72613
3.729
3.01147
2.46842
2.00136
1.7168
1.493
1.26776
1.12116
1.03834
0.948814
0.834562
0.791425
0.770936
0.7534
0.76478
0.781239
0.802823
0.840128
0.90335
0.968496
1.03787
1.13169
1.19597
1.21952
1.25656
1.28587
1.29996
1.37952
1.73574
2.55695
3.09783
3.32897
4.37487
5.51483
6.11549
6.1983
6.12759
5.97472
5.86452
5.78992
5.71378
5.62427
5.55223
5.4857
5.42806
5.3664
5.29365
5.19753
5.07018
4.93435
4.83769
4.77014
4.70524
4.63634
4.56261
4.48088
4.38592
4.28474
4.20347
4.14749
4.09823
4.0455
3.98265
3.91142
3.83263
3.74562
3.65555
3.59162
3.55389
3.51862
3.47784
3.42196
3.33748
3.22983
3.14579
3.10023
3.06924
3.05093
3.0353
3.00902
2.97569
2.91705
2.82184
2.71936
2.65913
2.63184
2.6116
2.59562
2.57389
2.5451
2.49621
2.41174
2.339
2.31248
2.27674
5.00499
4.16553
3.48523
2.93817
2.44298
2.10225
1.86845
1.61594
1.39676
1.28371
1.19144
1.07104
0.982003
0.933594
0.878389
0.85119
0.838512
0.821817
0.795448
0.793862
0.803722
0.836746
0.913217
1.02802
1.11289
1.17906
1.20771
1.26862
1.68105
2.45696
3.06649
3.35766
3.3799
3.49537
4.11044
5.22521
5.81044
5.98181
5.97531
5.87847
5.8017
5.71407
5.62383
5.51371
5.42294
5.3617
5.30513
5.24346
5.17577
5.08395
4.95638
4.81946
4.71839
4.64803
4.58718
4.53304
4.4782
4.41348
4.32736
4.21667
4.11096
4.0426
3.988
3.93375
3.88333
3.83658
3.78062
3.7003
3.60212
3.52678
3.47879
3.43383
3.38175
3.32074
3.25633
3.19065
3.12398
3.07487
3.04466
3.01831
2.9883
2.94256
2.88306
2.81457
2.74237
2.67248
2.62483
2.59859
2.57678
2.55578
2.53018
2.48749
2.41461
2.34276
2.3136
2.27556
5.21337
4.49279
3.8762
3.32249
2.84289
2.47374
2.18287
1.93652
1.71417
1.54195
1.40148
1.28643
1.19742
1.12052
1.03003
0.952947
0.915677
0.885462
0.841273
0.803209
0.802556
0.809698
0.828406
0.868124
0.935719
1.00302
1.09983
1.42812
2.26239
2.89141
3.09679
3.28874
3.34291
3.32743
3.40316
3.8713
4.80025
5.53289
5.78811
5.84705
5.81512
5.73949
5.64986
5.5339
5.37438
5.2648
5.19933
5.16327
5.12819
5.06382
4.97775
4.85773
4.71882
4.61391
4.54921
4.49955
4.45341
4.39778
4.33358
4.24591
4.12723
4.01115
3.9399
3.89404
3.85907
3.82368
3.78146
3.72551
3.63833
3.52532
3.43569
3.37844
3.3342
3.29801
3.26537
3.22862
3.17958
3.11145
3.03152
2.9631
2.91368
2.87694
2.83885
2.80186
2.76465
2.71631
2.65119
2.59698
2.57147
2.54865
2.51535
2.46805
2.41568
2.36558
2.32738
2.27714
5.36636
4.7417
4.17567
3.62117
3.18754
2.82748
2.49608
2.20608
2.00452
1.80724
1.63299
1.47881
1.39296
1.31753
1.22191
1.10508
1.04694
1.02413
0.983355
0.91136
0.860474
0.857302
0.853771
0.844934
0.852853
0.879197
1.11455
1.91362
2.46581
2.71424
2.8354
2.95731
3.10955
3.16182
3.20142
3.26962
3.57162
4.36869
5.22791
5.60583
5.7382
5.72824
5.64736
5.54833
5.39699
5.2229
5.13002
5.07242
5.03283
5.01419
4.96236
4.88611
4.77683
4.62979
4.50653
4.43451
4.38305
4.35862
4.31747
4.25937
4.18118
4.06426
3.93759
3.86317
3.82036
3.79136
3.75884
3.71636
3.65683
3.55906
3.43447
3.35593
3.31932
3.29148
3.26502
3.23327
3.19521
3.13805
3.04213
2.93531
2.86495
2.82316
2.79695
2.77887
2.76012
2.73385
2.69277
2.62796
2.55416
2.49683
2.45765
2.42859
2.40409
2.37857
2.35398
2.2982
5.49547
4.93387
4.40603
3.8957
3.48087
3.12047
2.76785
2.48299
2.256
2.04783
1.86117
1.70846
1.57743
1.47652
1.40363
1.31016
1.18411
1.11562
1.08612
1.04192
0.977071
0.92848
0.896706
0.869399
0.881327
1.055
1.65944
2.30625
2.3609
2.39121
2.43877
2.53392
2.66377
2.78632
2.87621
2.93898
3.04374
3.28057
3.97827
4.91259
5.35577
5.59135
5.61953
5.51352
5.40629
5.26474
5.11598
5.01859
4.9675
4.93387
4.91496
4.86829
4.79459
4.67924
4.51091
4.39134
4.33394
4.29149
4.2759
4.24862
4.19331
4.11764
3.99891
3.8673
3.78774
3.74118
3.70607
3.67731
3.6367
3.57648
3.48756
3.38201
3.29758
3.2493
3.21799
3.20182
3.17499
3.12649
3.04736
2.93916
2.84726
2.80095
2.77613
2.75596
2.74053
2.72462
2.69861
2.64897
2.55682
2.47164
2.43134
2.40884
2.39023
2.37408
2.35687
2.30906
5.59148
5.07972
4.59051
4.13583
3.73375
3.3641
3.00814
2.7367
2.50259
2.2708
2.05979
1.9263
1.79037
1.62655
1.54012
1.4814
1.38797
1.25552
1.18922
1.16274
1.11785
1.04783
0.997532
0.999334
1.1399
1.66357
2.31597
2.48216
2.44217
2.39789
2.34736
2.32044
2.31173
2.33457
2.40309
2.49923
2.62472
2.72823
2.91582
3.48818
4.37023
5.09652
5.35366
5.4339
5.39141
5.28673
5.17653
5.02481
4.92655
4.86935
4.83999
4.81263
4.75495
4.67837
4.55931
4.3992
4.29345
4.24298
4.21282
4.19939
4.15927
4.10468
4.03159
3.91278
3.77944
3.70489
3.66036
3.62155
3.58498
3.54617
3.50015
3.42245
3.30632
3.22315
3.17783
3.1397
3.10361
3.06672
3.0234
2.96082
2.88715
2.81671
2.76586
2.73658
2.71543
2.6971
2.6761
2.64041
2.56798
2.4725
2.42273
2.40229
2.38991
2.38286
2.36721
2.31477
5.67125
5.21691
4.75673
4.32169
3.95036
3.59117
3.23424
2.95487
2.71969
2.49252
2.26403
2.11133
1.97917
1.82959
1.67965
1.6003
1.53389
1.43642
1.32696
1.2697
1.21711
1.16084
1.13612
1.27166
1.80693
2.45407
2.66075
2.59684
2.52677
2.47784
2.43024
2.35547
2.28968
2.27054
2.25778
2.26895
2.30843
2.33265
2.34851
2.43947
2.81055
3.65103
4.54406
5.05925
5.24428
5.27423
5.20361
5.08182
4.91831
4.81254
4.75206
4.71308
4.68942
4.63343
4.56049
4.45019
4.30938
4.21382
4.16282
4.11944
4.09152
4.05875
4.00766
3.9295
3.82043
3.70098
3.62169
3.57563
3.54043
3.51315
3.47661
3.41877
3.3344
3.23331
3.14925
3.0934
3.05188
3.01438
2.9796
2.94968
2.91363
2.86111
2.79519
2.73539
2.69349
2.66412
2.63726
2.60742
2.56545
2.50614
2.44556
2.3978
2.36603
2.34131
2.32361
2.27561
5.75299
5.32683
4.89254
4.48752
4.12986
3.7681
3.43447
3.17225
2.92511
2.67535
2.46888
2.29954
2.13913
1.99989
1.86717
1.74485
1.64418
1.56859
1.48577
1.39154
1.3159
1.30521
1.45943
2.07078
2.73027
2.8935
2.81746
2.72986
2.68237
2.64041
2.58333
2.50471
2.39036
2.29921
2.2648
2.24729
2.24006
2.24787
2.23296
2.19457
2.16963
2.28989
2.85258
3.79263
4.60714
5.02448
5.13562
5.11211
4.96457
4.79927
4.6833
4.62333
4.58269
4.56599
4.51723
4.45082
4.35785
4.23551
4.12909
4.06455
4.01472
3.96715
3.92468
3.88519
3.82856
3.73694
3.62757
3.55022
3.49773
3.44845
3.40139
3.36265
3.31935
3.25347
3.16241
3.07056
3.0131
2.97914
2.95289
2.92852
2.90234
2.87052
2.82434
2.75444
2.6868
2.64161
2.60599
2.5725
2.54122
2.5088
2.4657
2.40771
2.35257
2.31342
2.28446
2.2304
5.80146
5.39862
4.99304
4.6241
4.27903
3.93138
3.62541
3.35828
3.10335
2.84944
2.66117
2.48787
2.3084
2.13912
2.02193
1.91285
1.78969
1.68439
1.59879
1.51749
1.48788
1.6721
2.36409
3.11227
3.20881
3.09637
2.9683
2.89818
2.85459
2.79473
2.72737
2.65476
2.54531
2.41343
2.34356
2.29919
2.25997
2.23214
2.21058
2.18402
2.15888
2.07964
2.07097
2.28966
3.00226
3.91471
4.68071
4.921
4.93028
4.8463
4.68443
4.579
4.51616
4.47114
4.44498
4.40215
4.34671
4.26375
4.14107
4.02732
3.95832
3.91064
3.86795
3.82513
3.78282
3.7332
3.65241
3.54716
3.46348
3.40411
3.3548
3.31078
3.27106
3.23214
3.17774
3.0994
3.01853
2.96526
2.93477
2.90911
2.88765
2.86256
2.82577
2.7676
2.69643
2.63082
2.57983
2.54155
2.51407
2.4895
2.45937
2.41379
2.35245
2.29191
2.24762
2.19366
5.85222
5.47122
5.09637
4.75418
4.41943
4.08324
3.79889
3.53584
3.26987
3.0233
2.83026
2.64923
2.47223
2.3014
2.17018
2.04939
1.9282
1.80611
1.70947
1.69774
1.92083
2.65895
3.49146
3.59037
3.46497
3.29762
3.14361
3.06586
3.01259
2.9507
2.88256
2.81123
2.72025
2.58978
2.47301
2.4064
2.35346
2.30045
2.25228
2.21053
2.17089
2.11133
2.03458
1.98877
2.02459
2.34794
3.15335
3.9913
4.56291
4.69988
4.70208
4.59909
4.47564
4.41557
4.37791
4.34426
4.29829
4.24502
4.15466
4.0226
3.92655
3.87228
3.82694
3.78469
3.74377
3.7008
3.64257
3.54757
3.44465
3.37476
3.3245
3.2811
3.24221
3.20443
3.16512
3.1132
3.03648
2.96708
2.92769
2.89582
2.86121
2.82032
2.7816
2.74575
2.69457
2.62227
2.56124
2.52495
2.49551
2.46499
2.43221
2.39575
2.34512
2.27224
2.2132
2.16891
5.89089
5.53223
5.19205
4.86473
4.53341
4.22461
3.95364
3.68881
3.41178
3.18799
2.99606
2.80556
2.61216
2.44983
2.31807
2.19185
2.05029
1.92214
1.92453
2.21396
2.97111
3.77481
3.93124
3.81024
3.66552
3.52057
3.35014
3.23109
3.16131
3.0928
3.01969
2.9446
2.86359
2.75893
2.62178
2.51863
2.45788
2.40298
2.34834
2.29342
2.23608
2.17696
2.10109
2.00476
1.9616
1.94022
2.01241
2.41077
3.18695
3.93842
4.40803
4.47678
4.46027
4.3776
4.34107
4.31616
4.25982
4.20665
4.13141
4.00765
3.90952
3.8568
3.81135
3.76636
3.71977
3.66932
3.60673
3.51902
3.4213
3.3591
3.31731
3.27692
3.23429
3.19133
3.14883
3.10036
3.03351
2.96338
2.91375
2.8736
2.83349
2.79411
2.75659
2.71335
2.65791
2.59244
2.53849
2.50538
2.4767
2.44667
2.41451
2.37771
2.32961
2.25458
2.19672
2.1624
5.92946
5.59879
5.27926
4.96151
4.63992
4.35535
4.08815
3.82196
3.55354
3.34366
3.14323
2.94678
2.7541
2.60382
2.45766
2.31108
2.16671
2.20905
2.65201
3.50049
4.07848
4.20558
4.07888
3.951
3.85202
3.73762
3.58182
3.40576
3.30064
3.22377
3.1484
3.0736
2.99674
2.91037
2.79914
2.6674
2.55807
2.48236
2.42154
2.36551
2.30931
2.24994
2.18487
2.10775
2.01873
1.93599
1.9102
1.89916
1.99839
2.43201
3.18389
3.85099
4.23037
4.27216
4.32768
4.30367
4.23999
4.1827
4.09267
3.96037
3.87245
3.82891
3.79054
3.75154
3.70739
3.65392
3.57946
3.46702
3.37177
3.33348
3.30265
3.27043
3.23571
3.19468
3.1417
3.07406
3.00483
2.946
2.8909
2.84572
2.80877
2.77449
2.7361
2.6896
2.63347
2.57344
2.52693
2.49003
2.45877
2.42935
2.39743
2.36175
2.318
2.254
2.20511
2.17591
5.99394
5.67837
5.36664
5.05075
4.74705
4.47446
4.20901
3.93968
3.69736
3.48894
3.28552
3.07996
2.89337
2.73338
2.5872
2.43481
2.50581
3.09909
4.20783
4.63403
4.58788
4.41272
4.23759
4.14108
4.04965
3.93394
3.79286
3.61048
3.45002
3.35306
3.27041
3.18955
3.10841
3.02353
2.92761
2.81088
2.68442
2.58178
2.50377
2.43402
2.36929
2.31205
2.26106
2.20426
2.13236
2.04324
1.95483
1.88053
1.85494
1.85367
1.97967
2.42268
3.15032
3.72569
4.0621
4.17689
4.19947
4.16393
4.06012
3.94036
3.83456
3.7724
3.73905
3.70928
3.6776
3.64036
3.57411
3.45058
3.33609
3.29055
3.2618
3.23734
3.21191
3.18235
3.14012
3.07177
2.97557
2.8816
2.83378
2.80606
2.78082
2.75352
2.72208
2.68529
2.63717
2.56886
2.49054
2.44045
2.40982
2.382
2.3563
2.33215
2.30641
2.27453
2.2344
2.16452
6.03216
5.72969
5.42445
5.12063
4.84553
4.5783
4.31485
4.05177
3.83824
3.62313
3.41786
3.20483
3.01805
2.86745
2.7274
2.86613
3.56664
4.68337
5.16789
5.02257
4.80201
4.58971
4.42432
4.31963
4.21478
4.09055
3.95803
3.80614
3.63114
3.48892
3.38848
3.30013
3.21384
3.12625
3.03495
2.9346
2.81717
2.6911
2.58566
2.50574
2.43853
2.37665
2.31927
2.26193
2.20118
2.12923
2.04682
1.96513
1.89392
1.82757
1.79976
1.80925
1.95504
2.41744
3.05236
3.62938
3.91205
4.00963
4.00745
3.94138
3.83686
3.7421
3.66888
3.63604
3.62251
3.59772
3.54622
3.46635
3.36228
3.26171
3.20369
3.17394
3.15572
3.14115
3.11419
3.06118
2.96356
2.84876
2.78646
2.75789
2.73676
2.7164
2.69428
2.67038
2.63899
2.57145
2.46678
2.40593
2.37837
2.35557
2.33466
2.31486
2.29641
2.27705
2.24567
2.15766
6.06411
5.7788
5.48684
5.20677
4.94563
4.68369
4.41444
4.17816
3.964
3.74784
3.5352
3.3112
3.15194
3.05199
3.31668
4.27903
5.12649
5.56263
5.5126
5.2855
5.06069
4.82367
4.60202
4.4654
4.35541
4.24042
4.11885
3.98713
3.83104
3.65496
3.50529
3.39448
3.30016
3.211
3.12302
3.03263
2.93267
2.81724
2.69396
2.58447
2.49867
2.42722
2.36483
2.3063
2.24915
2.18871
2.11917
2.04527
1.97037
1.90138
1.83688
1.77573
1.7478
1.7678
1.91039
2.36913
2.96186
3.51113
3.77469
3.83246
3.81496
3.74274
3.661
3.58153
3.50649
3.47645
3.45665
3.42847
3.37216
3.28351
3.19168
3.13076
3.09305
3.06315
3.04084
3.01579
2.95382
2.85619
2.76638
2.7221
2.69919
2.68137
2.67075
2.66142
2.63496
2.57108
2.46449
2.38627
2.35736
2.33759
2.32114
2.31187
2.30274
2.28403
2.24778
2.15206
6.14847
5.85789
5.57232
5.30452
5.04621
4.78554
4.52141
4.30153
4.07079
3.86048
3.62517
3.43879
3.42381
3.86331
5.13198
5.97103
5.91164
5.81823
5.63082
5.46459
5.29499
5.0833
4.83487
4.62182
4.4883
4.37654
4.25942
4.13121
3.99001
3.82923
3.65533
3.49983
3.37986
3.28069
3.18891
3.09956
3.0097
2.91305
2.80474
2.69264
2.59033
2.50096
2.42278
2.35216
2.28757
2.22467
2.15961
2.09411
2.02576
1.96377
1.90252
1.83771
1.77895
1.73301
1.69533
1.71598
1.87648
2.31713
2.90222
3.38706
3.59989
3.6584
3.66729
3.59226
3.467
3.40763
3.37944
3.34843
3.31792
3.2749
3.20183
3.1094
3.04261
3.00053
2.96354
2.92513
2.89059
2.84313
2.78125
2.72436
2.68515
2.65931
2.63445
2.60024
2.5614
2.5221
2.46152
2.39728
2.35537
2.32816
2.30756
2.28929
2.26847
2.24389
2.21388
2.13561
6.21768
5.92331
5.64636
5.38636
5.13057
4.86094
4.62621
4.39779
4.16634
3.95396
3.74096
3.85149
4.56089
5.75279
6.77587
6.72044
6.32501
5.93412
5.7108
5.59363
5.48603
5.31375
5.10024
4.85262
4.64626
4.50336
4.37634
4.24755
4.11283
3.96908
3.81
3.6424
3.49146
3.36669
3.25823
3.15766
3.06297
2.97184
2.8779
2.77869
2.67721
2.5809
2.49436
2.41416
2.33832
2.26497
2.19478
2.12794
2.06338
2.00356
1.94775
1.89471
1.84146
1.78301
1.73041
1.68687
1.64244
1.66697
1.85731
2.30299
2.81821
3.2214
3.49579
3.51708
3.47824
3.40487
3.34356
3.28852
3.25231
3.22467
3.18104
3.10782
3.03196
2.9689
2.91606
2.87003
2.83591
2.80906
2.77657
2.73165
2.68077
2.63731
2.59949
2.55873
2.51338
2.46365
2.42249
2.38803
2.35222
2.32073
2.29421
2.26816
2.23954
2.21239
2.18899
2.12711
6.20714
5.99999
5.71957
5.46129
5.2114
4.94704
4.72959
4.47771
4.27442
4.12785
4.42323
5.4834
6.56383
7.11965
7.12116
6.86067
6.53243
6.15127
5.91023
5.78668
5.67789
5.51533
5.31647
5.06924
4.81966
4.64424
4.49945
4.35821
4.21743
4.07568
3.92796
3.77082
3.61309
3.46979
3.34457
3.23145
3.12645
3.02915
2.93469
2.83944
2.74074
2.64057
2.54756
2.46402
2.38946
2.31978
2.25313
2.18487
2.11331
2.03911
1.96977
1.9144
1.86808
1.82609
1.78231
1.72154
1.66584
1.62682
1.59135
1.62688
1.83397
2.23729
2.78465
3.13056
3.30691
3.35942
3.34486
3.28649
3.22002
3.16175
3.11791
3.07812
3.01122
2.94992
2.90725
2.866
2.8251
2.79513
2.77174
2.73663
2.68309
2.62689
2.57378
2.52417
2.47359
2.42898
2.39399
2.36061
2.33555
2.31905
2.29791
2.26713
2.22933
2.19223
2.15506
2.09303
5.67037
6.05859
5.82771
5.55016
5.27483
5.03935
4.81137
4.60178
4.62503
5.20817
6.60539
7.53393
7.61909
7.52873
7.2128
6.96781
6.75549
6.46178
6.21283
6.03615
5.86681
5.6827
5.47914
5.24106
4.99409
4.79936
4.6381
4.48359
4.32926
4.17532
4.02096
3.86315
3.70485
3.55769
3.42931
3.31575
3.20924
3.10677
3.00431
2.89887
2.79136
2.68366
2.58253
2.49424
2.42073
2.35623
2.29646
2.23492
2.16863
2.09598
2.02047
1.95082
1.88659
1.82853
1.77864
1.73964
1.706
1.6479
1.5912
1.55822
1.53325
1.58386
1.79042
2.22981
2.687
3.09417
3.20914
3.21374
3.18566
3.1062
3.03634
2.98533
2.96362
2.95093
2.92865
2.89186
2.84309
2.7896
2.73383
2.67393
2.61463
2.56236
2.52169
2.48154
2.44384
2.41504
2.38248
2.35059
2.32344
2.29097
2.25102
2.21552
2.18213
2.15395
2.1248
2.0808
3.79874
5.73038
5.89358
5.67533
5.33939
5.12399
4.96806
5.28114
6.30411
7.56101
8.46606
8.37349
7.96612
7.69544
7.43484
7.22236
7.01861
6.74793
6.47151
6.25272
6.04965
5.84451
5.63272
5.40264
5.15992
4.94814
4.77266
4.60963
4.44906
4.28832
4.12393
3.95299
3.78154
3.62562
3.49378
3.38077
3.27583
3.17395
3.07131
2.96162
2.84618
2.73062
2.62108
2.52914
2.45655
2.39234
2.33092
2.2679
2.20233
2.13243
2.05693
1.98372
1.91666
1.85981
1.81071
1.76324
1.71638
1.67522
1.64111
1.58248
1.52014
1.48456
1.46997
1.5419
1.76444
2.21121
2.65116
3.00738
3.08861
3.07102
3.01723
2.96804
2.92829
2.90065
2.86879
2.82445
2.77306
2.71988
2.67034
2.6156
2.56132
2.52074
2.49051
2.46319
2.43126
2.37902
2.34791
2.33883
2.31449
2.27114
2.22144
2.18664
2.16045
2.13313
2.10585
2.10946
1.63449
4.28341
5.77545
5.68736
5.41501
5.41683
6.1934
7.80766
8.69532
8.91447
8.90355
8.63224
8.24381
7.94189
7.75218
7.53328
7.26969
6.97846
6.6771
6.42616
6.21361
6.00662
5.79446
5.56797
5.32328
5.08858
4.88807
4.71131
4.5447
4.38103
4.2146
4.04108
3.8646
3.70148
3.56169
3.44053
3.32859
3.22247
3.11785
3.00844
2.89038
2.77681
2.67017
2.57677
2.50168
2.43506
2.37074
2.30395
2.23233
2.15545
2.07625
2.00443
1.94003
1.88408
1.83397
1.78765
1.74411
1.69911
1.6486
1.59365
1.54043
1.49179
1.45786
1.44458
1.43835
1.52026
1.77405
2.23103
2.58525
2.85684
2.92489
2.93479
2.92882
2.90962
2.86281
2.80956
2.7584
2.69274
2.59959
2.53794
2.52201
2.51076
2.493
2.47057
2.43342
2.37644
2.32368
2.27171
2.23541
2.21171
2.19302
2.16792
2.15589
2.14511
2.17178
2.40791
1.03558
1.99039
4.80907
5.33092
5.8738
7.36691
9.19383
10.0189
9.66166
9.33044
9.02893
8.80527
8.50332
8.18267
7.9723
7.75496
7.47953
7.19323
6.90267
6.6263
6.38725
6.16779
5.94537
5.70763
5.45476
5.20937
4.99728
4.81351
4.64293
4.47631
4.30792
4.13313
3.95245
3.78075
3.64055
3.53771
3.44256
3.33763
3.22753
3.10883
2.97649
2.84536
2.74439
2.66935
2.59915
2.52913
2.45806
2.38383
2.30631
2.22668
2.14807
2.07586
2.00831
1.94688
1.8908
1.83882
1.78907
1.73553
1.67357
1.6207
1.57917
1.53391
1.48996
1.44259
1.40926
1.38158
1.39214
1.49733
1.78336
2.19447
2.4796
2.68098
2.81908
2.82445
2.82456
2.81241
2.77092
2.68824
2.58921
2.50741
2.46955
2.45109
2.43393
2.41724
2.39826
2.37581
2.32621
2.24566
2.19036
2.17819
2.16913
2.17015
2.22481
2.40467
2.697
3.21366
1.00043
1.08599
2.45222
4.22046
8.66844
10.6114
10.8289
10.5491
10.0235
9.58941
9.31224
9.11031
8.82842
8.47019
8.18543
7.97461
7.71272
7.41169
7.11537
6.82239
6.54697
6.29516
6.04967
5.80127
5.55263
5.31465
5.09911
4.90674
4.72851
4.55478
4.37904
4.19931
4.02014
3.85026
3.69692
3.55948
3.43646
3.32283
3.21134
3.09693
2.97805
2.86395
2.76062
2.66805
2.58525
2.50534
2.42503
2.34489
2.26861
2.19602
2.1259
2.05878
1.99336
1.93361
1.87463
1.81686
1.76252
1.71318
1.66832
1.62309
1.58109
1.53618
1.49441
1.45227
1.41562
1.37891
1.35677
1.34112
1.36573
1.48353
1.77936
2.1811
2.48505
2.56345
2.66138
2.71465
2.69978
2.66476
2.59328
2.48865
2.43618
2.41867
2.40244
2.38302
2.35862
2.32845
2.28552
2.21973
2.18193
2.18704
2.24594
2.45693
2.81379
3.2652
3.64844
3.78933
1
1.00177
1.15324
4.58266
12.0982
12.1132
11.1867
10.6658
10.257
9.8829
9.61196
9.35806
9.03327
8.66512
8.35689
8.11886
7.88682
7.63472
7.35382
7.06093
6.7712
6.50388
6.24974
5.99908
5.75102
5.50983
5.28344
5.0771
4.88629
4.70261
4.52004
4.33659
4.15477
3.9785
3.80841
3.64211
3.49589
3.36702
3.24689
3.13399
3.03196
2.93296
2.82671
2.72149
2.62389
2.53256
2.44507
2.36016
2.2815
2.21016
2.14562
2.08498
2.02388
1.96276
1.89727
1.83291
1.77192
1.72148
1.68591
1.64966
1.60784
1.56288
1.52149
1.48473
1.44567
1.40308
1.36485
1.32331
1.30373
1.2879
1.32805
1.46805
1.77456
2.11723
2.40564
2.56469
2.58849
2.57963
2.52833
2.44995
2.3955
2.36137
2.33951
2.32452
2.31298
2.30905
2.28364
2.26475
2.3185
2.52038
2.90046
3.33214
3.70107
3.99872
4.07136
4.01711
1
1.00001
1.00407
5.84098
12.1741
11.7491
10.925
10.5517
10.2927
10.0175
9.78225
9.51918
9.2159
8.89831
8.57143
8.27252
7.98435
7.67947
7.37154
7.07448
6.77946
6.5002
6.24024
5.98808
5.74031
5.49839
5.26762
5.05278
4.85218
4.66056
4.47426
4.29199
4.1151
3.94698
3.79151
3.64768
3.51107
3.37622
3.24136
3.11157
2.9913
2.88285
2.78509
2.69963
2.62069
2.53998
2.45587
2.36793
2.28009
2.19749
2.12423
2.06065
2.00495
1.95478
1.90228
1.84689
1.78881
1.72717
1.66529
1.61481
1.57795
1.54487
1.51282
1.47586
1.43145
1.37974
1.33394
1.299
1.2737
1.25489
1.24085
1.23164
1.27705
1.45302
1.75992
2.10675
2.35432
2.48706
2.48024
2.4583
2.4042
2.35766
2.33185
2.32086
2.32207
2.35274
2.46467
2.71251
3.04996
3.44175
3.78185
3.96614
4.07174
4.0944
4.07992
3.98708
1
1
1.01829
6.7394
11.3309
11.3369
10.9412
10.7186
10.4782
10.2198
9.98806
9.72457
9.4024
9.05315
8.72431
8.42067
8.14183
7.84793
7.51524
7.20519
6.92389
6.64485
6.37182
6.10364
5.83949
5.5843
5.34415
5.12205
4.91553
4.71872
4.52703
4.33904
4.15764
3.98771
3.83188
3.68666
3.547
3.40823
3.26928
3.13491
3.01101
2.90078
2.80459
2.72079
2.64068
2.55759
2.4691
2.37618
2.2833
2.19722
2.12367
2.06116
2.00809
1.9614
1.9158
1.86635
1.80456
1.73238
1.66384
1.61233
1.57624
1.54559
1.51665
1.48368
1.44189
1.38741
1.33303
1.29416
1.26352
1.24326
1.22361
1.20651
1.18474
1.18953
1.24414
1.46215
1.79058
2.1423
2.2746
2.36819
2.35202
2.35678
2.37158
2.42828
2.58605
2.87281
3.28557
3.6981
3.96089
4.11105
4.19158
4.19195
4.17127
4.09996
4.00891
3.87985
1
1
1.19763
7.25065
10.8951
11.0544
10.8948
10.7284
10.5021
10.2538
9.98637
9.69741
9.38095
9.05255
8.73452
8.43867
8.14435
7.83461
7.51595
7.21003
6.93332
6.66347
6.38633
6.11001
5.84164
5.59048
5.35997
5.1471
4.94449
4.74348
4.53949
4.33689
4.14845
3.98164
3.83356
3.69656
3.56404
3.43066
3.29332
3.1533
3.02072
2.90657
2.81036
2.72565
2.6447
2.56276
2.47673
2.38553
2.29154
2.20349
2.13095
2.07149
2.02186
1.97525
1.926
1.87062
1.80383
1.73117
1.66608
1.61919
1.58439
1.55283
1.52248
1.48885
1.44791
1.39288
1.33551
1.29674
1.26768
1.24316
1.21844
1.19693
1.17278
1.15387
1.12496
1.14183
1.2421
1.50387
1.84014
2.14883
2.26471
2.44167
2.72871
3.05616
3.37785
3.68248
3.94977
4.10776
4.21818
4.25361
4.22005
4.15402
4.09714
4.03213
3.95585
3.84715
1
1
1.2433
7.40833
10.7461
10.844
10.7743
10.68
10.5021
10.2873
10.0294
9.75218
9.46232
9.17937
8.89339
8.59753
8.29151
7.97411
7.64898
7.32626
7.02781
6.73015
6.4283
6.14358
5.87229
5.62032
5.38961
5.17446
4.96598
4.75576
4.54102
4.33028
4.14087
3.97927
3.83864
3.70893
3.58156
3.44906
3.30653
3.15776
3.01882
2.90295
2.80684
2.72214
2.64209
2.56315
2.48165
2.39373
2.29889
2.20837
2.13591
2.0771
2.02687
1.97789
1.92559
1.86825
1.80285
1.73554
1.6764
1.63004
1.5914
1.5546
1.51904
1.4808
1.44076
1.39907
1.35293
1.30606
1.26545
1.23765
1.21252
1.19203
1.17305
1.14462
1.11767
1.08724
1.08483
1.12864
1.30264
1.67363
2.30164
2.95257
3.52517
4.08074
4.5038
4.77391
4.8053
4.68467
4.5161
4.33045
4.18574
4.09798
4.02184
3.94882
3.89181
3.80706
)
;

boundaryField
{
    inlet
    {
        type            fixedValue;
        value           uniform 1;
    }
    outlet
    {
        type            zeroGradient;
    }
    bottom
    {
        type            symmetryPlane;
    }
    top
    {
        type            symmetryPlane;
    }
    obstacle
    {
        type            zeroGradient;
    }
    defaultFaces
    {
        type            empty;
    }
}


// ************************************************************************* //
