/*--------------------------------*- C++ -*----------------------------------*\
  =========                 |
  \\      /  F ield         | OpenFOAM: The Open Source CFD Toolbox
   \\    /   O peration     | Website:  https://openfoam.org
    \\  /    A nd           | Version:  7
     \\/     M anipulation  |
\*---------------------------------------------------------------------------*/
FoamFile
{
    version     2.0;
    format      ascii;
    class       volScalarField;
    location    "3.2";
    object      T;
}
// * * * * * * * * * * * * * * * * * * * * * * * * * * * * * * * * * * * * * //

dimensions      [0 0 0 1 0 0 0];

internalField   nonuniform List<scalar> 
4032
(
1
1
1
1
1
1
1
1
1
1
1
1.07952
2.34666
2.71397
2.72937
2.74583
2.75939
2.77092
2.78065
2.78975
2.79966
2.81003
2.81911
2.82482
1
1
1
1
1
1
1
1
1
1
1
1.05992
2.33015
2.7118
2.72802
2.74413
2.75769
2.76909
2.77861
2.78733
2.79671
2.80645
2.81479
2.82003
1
1
1
1
1
1
1
1
1
1
1
1.00438
2.28318
2.70685
2.72439
2.7404
2.754
2.7652
2.77443
2.78279
2.79186
2.80145
2.80958
2.81497
1
1
1
1
1
1
1
1
1
1
1
1.00004
2.21784
2.69767
2.71868
2.7347
2.7485
2.75947
2.76835
2.77616
2.78446
2.79299
2.79978
2.80375
1
1
1
1
1
1
1
1
1
1
1
1
2.12571
2.68357
2.71231
2.72776
2.74145
2.7518
2.75967
2.76597
2.77239
2.77929
2.78487
2.78974
1
1
1
1
1
1
1
1
1
1
1
1
1.99789
2.65747
2.7012
2.71704
2.7309
2.74081
2.74791
2.75344
2.75878
2.764
2.76556
2.76178
1
1
1
1
1
1
1
1
1
1
1
1
1.82578
2.60831
2.68253
2.70257
2.71814
2.72794
2.73355
2.73681
2.73776
2.73521
2.72963
2.72424
1
1
1
1
1
1
1
1
1
1
1
1
1.5838
2.5172
2.65305
2.68154
2.69998
2.71062
2.71557
2.71664
2.71285
2.70785
2.70398
2.71512
1
1
1
1
1
1
1
1
1
1
1
1
1.24771
2.38473
2.62791
2.65205
2.67236
2.68551
2.69098
2.6901
2.68166
2.66358
2.61357
2.51528
1
1
1
1
1
1
1
1
1
1
1
1
1.01784
2.26412
2.62099
2.61861
2.63353
2.64951
2.65721
2.65538
2.64349
2.61171
2.55569
2.39527
1
1
1
1
1
1
1
1
1
1
1
1
1.00005
2.04734
2.5867
2.60291
2.61331
2.61878
2.6217
2.61726
2.60256
2.56508
2.50194
2.31868
1
1
1
1
1
1
1
1
1
1
1
1
1
1.67422
2.4914
2.58307
2.58986
2.59293
2.59055
2.58096
2.56105
2.52318
2.45027
2.29119
1
1
1
1
1
1
1
1
1
1
1
1
1
1.18168
2.33125
2.57805
2.56817
2.56634
2.56078
2.54638
2.52177
2.484
2.40719
2.29024
1
1
1
1
1
1
1
1
1
1
1
1
1
1.00876
2.15105
2.51835
2.53473
2.53733
2.53092
2.51511
2.48919
2.44633
2.37599
2.28588
1
1
1
1
1
1
1
1
1
1
1
1
1
0.99998
1.72035
2.41438
2.51309
2.51376
2.50672
2.48902
2.46261
2.41765
2.35601
2.2828
1
1
1
1
1
1
1
1
1
1
1
1
1
0.999993
1.14645
2.24301
2.49689
2.48656
2.47804
2.45982
2.43482
2.39279
2.34006
2.27777
1
1
1
1
1
1
1
1
1
1
1
1
1
0.999998
1.00512
1.99279
2.42604
2.45131
2.44446
2.43015
2.40725
2.37169
2.32684
2.27248
1
1
1
1
1
1
1
1
1
1
1
1
1
1
0.999987
1.41565
2.27512
2.42829
2.41314
2.39999
2.37985
2.34992
2.31171
2.26484
1
1
1
1
1
1
1
1
1
1
1
1
1
1
0.999996
1.04233
2.07048
2.38902
2.37318
2.36541
2.34933
2.32481
2.29359
2.25488
1
1
1
1
1
1
1
1
1
1
1
1
1
1
0.999999
1.00031
1.53386
2.24338
2.35262
2.33922
2.32309
2.30263
2.27704
2.24433
1
1
1
1
1
1
1
1
1
1
1
1
1
1
1
1
1.07543
2.03021
2.32697
2.31273
2.29725
2.27775
2.25491
2.22682
1
1
1
1
1
1
1
1
1
1
1
1
1
1
1
1
1.00115
1.46744
2.16319
2.29021
2.27162
2.25373
2.23295
2.20832
1
1
1
1
1
1
1
1
1
1
1
1
1
1
1
1
1
1.05853
1.9298
2.26438
2.24845
2.23097
2.2107
2.18864
1
1
1
1
1
1
1
1
1
1
1
1
1
1
1
1
1
1.00077
1.36439
2.08405
2.22727
2.20624
2.18889
2.16951
1
1
1
1
1
1
1
1
1
1
1
1
1
1
1
1
1
1
1.03222
1.73812
2.17208
2.18519
2.1714
2.15432
1
1
1
1
1
1
1
1
1
1
1
1
1
1
1
1
1
1
1.00034
1.20074
1.9562
2.16675
2.15019
2.13362
1
1
1
1
1
1
1
1
1
1
1
1
1
1
1
1
1
1
1
1.00919
1.47716
2.02855
2.13341
2.11364
1
1
1
1
1
1
1
1
1
1
1
1
1
1
1
1
1
1
1
1.00007
1.06604
1.72721
2.07034
2.10202
1
1
1
1
1
1
1
1
1
1
1
1
1
1
1
1
1
1
1
1
1.00128
1.21747
1.85432
2.0738
1
1
1
1
1
1
1
1
1
1
1
1
1
1
1
1
1
1
1
1
1.00001
1.01148
1.39492
1.92058
1
1
1
1
1
1
1
1
1
1
1
1
1
1
1
1
1
1
1
1
1
1.00011
1.04579
1.55844
1
1
1
1
1
1
1
1
1
1
1
1
1
1
1
1
1
1
1
1
1
1
1.00081
1.11644
1
1
1
1
1
1
1
1
1
1
1
1
1
1
1
1
1
1
1
1
1
1
1
1.00389
1
1
1
1
1
1
1
1
1
1
1
1
1
1
1
1
1
1
1
1
1
1
1
1.00003
1
1
1
1
1
1
1
1
1
1
1
1
1
1
1
1
1
1
1
1
1
1
1
1
1
1
1
1
1
1
1
1
1
1
1
1
1
1
1
1
1
1
1
1
1
1
1
1
1
1
1
1
1
1
1
1
1
1
1
1
1
1
1
1
1
1
1
1
1
1
1
1
1
1
1
1
1
1
1
1
1
1
1
1
1
1
1
1
1
1
1
1
1
1
1
1
1
1
1
1
1
1
1
1
1
1
1
1
1
1
1
1
1
1
1
1
1
1
1
1
1
1
1
1
1
1
1
1
1
1
1
1
1
1
1
1
1
1
1
1
1
1
1
1
1.69336
1.13457
1.075
1.13209
1.17301
1.24463
1.35466
1.41451
1.49064
1.59449
1.69069
1.70522
1.69794
1.69385
1.7081
1.75218
1.7591
1.73533
1.71064
1.71354
1.72239
1.72624
1.72175
1.70602
1.69208
1.69038
1.6934
1.70184
1.70895
1.70975
1.70034
2.21173
2.80999
2.82842
2.81152
2.80431
2.79666
2.78207
2.75303
2.71818
2.68827
2.66512
2.6461
2.62767
2.60917
2.59134
2.57561
2.56297
2.55124
2.53024
2.50465
2.47948
2.45665
2.43972
2.42704
2.42137
2.41955
2.40943
2.39003
2.36688
2.34023
2.31842
2.30391
2.294
2.28992
2.28737
2.27952
2.26716
2.24853
2.22376
2.20251
2.18688
2.17436
2.16713
2.16218
2.15477
2.14638
2.13282
2.11287
2.09625
2.08509
2.07519
2.06688
2.06295
2.05705
2.04888
2.03988
2.02454
2.00323
1.98927
1.98194
1.97522
1.96919
1.96118
1.95157
1.93182
1.95276
1.58829
1.44725
1.41351
1.35623
1.30795
1.27094
1.26673
1.29355
1.3455
1.38502
1.42394
1.46887
1.5089
1.55064
1.59917
1.62955
1.63112
1.6372
1.64818
1.66359
1.6744
1.67167
1.66192
1.65549
1.65648
1.66259
1.67218
1.67395
1.67292
1.66785
2.05901
2.72864
2.78253
2.76013
2.74323
2.73327
2.72211
2.69834
2.66859
2.64171
2.62226
2.60999
2.59814
2.58194
2.56253
2.54234
2.52345
2.50926
2.49859
2.48454
2.46731
2.44889
2.42838
2.41072
2.39686
2.38635
2.3786
2.3688
2.35398
2.33649
2.31682
2.29828
2.28493
2.2754
2.26725
2.26062
2.2525
2.23976
2.22359
2.20378
2.18397
2.16896
2.15782
2.14866
2.14174
2.13515
2.12586
2.11373
2.09923
2.08448
2.0728
2.06353
2.05495
2.0473
2.04001
2.0318
2.02089
2.00632
1.99102
1.97963
1.97149
1.96371
1.9553
1.94633
1.92873
2.04834
1.83783
1.66659
1.57124
1.47037
1.38173
1.33272
1.30284
1.27942
1.27019
1.27018
1.2925
1.32538
1.3537
1.38426
1.42132
1.45667
1.48919
1.52755
1.55469
1.57712
1.59443
1.59506
1.59237
1.59057
1.59626
1.60723
1.61214
1.61099
1.61165
1.6274
1.83613
2.49056
2.67992
2.63795
2.60269
2.5983
2.59673
2.58672
2.56992
2.54951
2.53103
2.51965
2.51397
2.50698
2.49599
2.48092
2.45984
2.43975
2.42518
2.41623
2.40926
2.40006
2.38827
2.37375
2.35371
2.33259
2.31923
2.30982
2.30373
2.2991
2.29
2.27806
2.26439
2.24644
2.22798
2.2173
2.21058
2.20593
2.20086
2.19049
2.17611
2.1568
2.13624
2.12238
2.1127
2.10402
2.09856
2.09448
2.08841
2.07983
2.06648
2.04996
2.03686
2.02767
2.01925
2.01096
2.00349
1.99662
1.98834
1.97595
1.96151
1.94987
1.93998
1.93
1.91345
2.10571
1.94405
1.8161
1.70739
1.60794
1.51713
1.4571
1.40897
1.37132
1.34219
1.30864
1.28464
1.28281
1.28306
1.2911
1.31015
1.33893
1.37759
1.42422
1.45881
1.47628
1.4903
1.50733
1.51956
1.52866
1.54452
1.55718
1.55642
1.55626
1.5751
1.6864
1.87111
2.16971
2.45641
2.49811
2.4946
2.48846
2.47489
2.46466
2.45719
2.44632
2.43344
2.42204
2.41275
2.40547
2.3979
2.38971
2.37946
2.36467
2.34944
2.33924
2.33116
2.32412
2.31588
2.30542
2.29328
2.2782
2.26168
2.25014
2.24295
2.23867
2.23487
2.2269
2.21637
2.20332
2.18622
2.16958
2.16171
2.15846
2.15601
2.15263
2.14455
2.1313
2.11058
2.08761
2.07288
2.06544
2.06125
2.06013
2.05951
2.05573
2.04856
2.03493
2.01495
1.99885
1.98903
1.98228
1.97796
1.97462
1.96956
1.96183
1.94828
1.93008
1.91544
1.9056
1.89238
2.15829
2.02193
1.91118
1.81245
1.70952
1.63978
1.57907
1.50807
1.45452
1.42179
1.38453
1.33298
1.31325
1.30327
1.29367
1.29862
1.30575
1.3155
1.33161
1.35912
1.38582
1.41173
1.44434
1.4676
1.47932
1.49516
1.50488
1.50813
1.53427
1.64903
1.85938
1.96997
2.01005
2.18035
2.33091
2.40215
2.4218
2.41648
2.40185
2.39004
2.38112
2.3711
2.35921
2.34998
2.34185
2.33494
2.32796
2.3204
2.31077
2.29709
2.28125
2.26955
2.26103
2.25218
2.24271
2.23324
2.22348
2.21244
2.20026
2.19021
2.18313
2.17617
2.16782
2.15793
2.14762
2.13738
2.12697
2.11642
2.1101
2.10746
2.1042
2.0987
2.08917
2.07354
2.05348
2.03765
2.02926
2.02426
2.02217
2.02106
2.01848
2.01474
2.00595
1.98917
1.96965
1.95793
1.95284
1.949
1.94598
1.94169
1.93577
1.92522
1.90612
1.88853
1.88109
1.87009
2.18455
2.07752
1.97953
1.88853
1.7931
1.72201
1.66852
1.6021
1.53645
1.49982
1.46812
1.42402
1.38947
1.36846
1.34297
1.33045
1.32474
1.31673
1.30478
1.30433
1.30861
1.32298
1.3553
1.40104
1.43264
1.4559
1.46487
1.48499
1.62083
1.82551
1.95605
2.01023
2.01365
2.03159
2.12984
2.27974
2.3491
2.37092
2.37376
2.36315
2.35324
2.34168
2.32945
2.31542
2.30437
2.29703
2.29012
2.28303
2.27535
2.26488
2.25007
2.23316
2.22007
2.21077
2.20231
2.19476
2.18755
2.17973
2.16929
2.15474
2.13984
2.12998
2.12185
2.11336
2.10607
2.10054
2.09457
2.08545
2.0734
2.06456
2.05958
2.05414
2.04644
2.03637
2.02524
2.01364
2.0018
1.99328
1.98856
1.98515
1.9816
1.97564
1.96718
1.95675
1.94499
1.9324
1.9234
1.91858
1.91435
1.91026
1.90512
1.89631
1.88074
1.86445
1.85702
1.84619
2.19857
2.11289
2.03031
1.94569
1.86328
1.79428
1.73322
1.67578
1.61993
1.57287
1.52991
1.49241
1.46313
1.43622
1.40145
1.36955
1.35382
1.3407
1.32171
1.30374
1.30305
1.30593
1.31447
1.33186
1.3606
1.38724
1.42386
1.54405
1.78284
1.92192
1.96358
1.9994
2.00204
1.99654
2.00782
2.0841
2.2174
2.30642
2.33739
2.3449
2.34075
2.32958
2.31673
2.30133
2.28135
2.2681
2.26081
2.25683
2.25271
2.24497
2.23439
2.21924
2.20093
2.18659
2.17778
2.17085
2.16432
2.15661
2.1478
2.13591
2.11914
2.102
2.09133
2.08464
2.07966
2.07495
2.06981
2.06333
2.05258
2.0372
2.0249
2.01754
2.01146
2.00629
2.00139
1.99559
1.9874
1.97536
1.96105
1.94913
1.94144
1.93661
1.93193
1.92783
1.92367
1.91676
1.90514
1.8946
1.88963
1.88519
1.87828
1.8685
1.85776
1.84723
1.83866
1.82594
2.20529
2.13428
2.06291
1.98406
1.91644
1.85499
1.79236
1.73113
1.68625
1.63803
1.59149
1.54706
1.52192
1.49846
1.46627
1.42382
1.40141
1.39253
1.37661
1.34737
1.32492
1.32298
1.32114
1.31752
1.32127
1.33348
1.43865
1.70447
1.83436
1.88692
1.90892
1.9299
1.953
1.95712
1.96121
1.97042
2.02018
2.14171
2.25496
2.30427
2.31792
2.31563
2.30418
2.29064
2.27178
2.25054
2.23958
2.23332
2.22901
2.22705
2.22027
2.20973
2.19484
2.17493
2.15801
2.14837
2.14124
2.13742
2.13111
2.1225
2.11136
2.09454
2.07576
2.06468
2.05854
2.05447
2.05026
2.04507
2.03745
2.02397
2.00578
1.99464
1.99024
1.98707
1.98376
1.97916
1.97267
1.96224
1.9447
1.92492
1.91275
1.90689
1.90442
1.90366
1.90282
1.90038
1.89449
1.88248
1.86737
1.85525
1.84711
1.84122
1.83637
1.83148
1.82648
1.81426
2.21032
2.14811
2.08412
2.01591
1.95586
1.89905
1.83728
1.78272
1.7364
1.69043
1.64574
1.60666
1.57113
1.54195
1.52007
1.49082
1.44801
1.42289
1.41203
1.3959
1.37107
1.35074
1.33608
1.32428
1.33031
1.41011
1.63214
1.79595
1.80723
1.81051
1.81741
1.8331
1.85537
1.8759
1.89016
1.89815
1.91323
1.952
2.0647
2.19918
2.25591
2.28436
2.28684
2.27412
2.26024
2.24278
2.22496
2.21405
2.20892
2.20522
2.20283
2.19593
2.1849
2.16888
2.14615
2.12977
2.12209
2.11613
2.11364
2.10938
2.10104
2.08964
2.07203
2.05219
2.04027
2.03402
2.02964
2.02626
2.0209
2.01244
1.99951
1.98359
1.9713
1.9652
1.96157
1.95979
1.95553
1.94682
1.93238
1.91262
1.89585
1.88831
1.88558
1.88415
1.88373
1.8831
1.87996
1.87129
1.85294
1.83486
1.82661
1.82195
1.81807
1.81501
1.81158
1.80234
2.21166
2.1564
2.09899
2.0412
1.98614
1.93092
1.87236
1.82472
1.781
1.73376
1.68685
1.65612
1.62314
1.57969
1.5552
1.53833
1.51065
1.46847
1.44534
1.43586
1.41985
1.39423
1.37342
1.37453
1.43459
1.62315
1.79635
1.82355
1.81317
1.8026
1.79204
1.77879
1.76897
1.77098
1.78212
1.79907
1.82133
1.83708
1.86903
1.97072
2.10894
2.20739
2.24003
2.25092
2.24579
2.23248
2.21871
2.20086
2.19
2.18397
2.18022
2.17608
2.16732
2.15584
2.13954
2.11785
2.10329
2.09665
2.0928
2.09118
2.08551
2.07696
2.06511
2.04688
2.02706
2.01637
2.01057
2.00547
2.00073
1.9954
1.98831
1.97645
1.95884
1.94653
1.94049
1.93527
1.92995
1.92407
1.91648
1.9053
1.89204
1.87944
1.87118
1.86754
1.86568
1.86424
1.86179
1.85588
1.84199
1.82262
1.8122
1.80796
1.80561
1.80438
1.80127
1.79185
2.21004
2.16322
2.11148
2.05835
2.00977
1.95872
1.90342
1.85748
1.81616
1.77313
1.72641
1.69392
1.664
1.62783
1.58893
1.56767
1.54942
1.52135
1.48738
1.46834
1.45056
1.43117
1.42408
1.4779
1.65702
1.82316
1.85599
1.84016
1.82217
1.80909
1.79562
1.77578
1.7582
1.74892
1.74034
1.73815
1.74203
1.74332
1.74341
1.76035
1.83699
1.98906
2.12255
2.19242
2.21585
2.21828
2.20954
2.19409
2.17457
2.16219
2.15509
2.14955
2.14528
2.13678
2.12612
2.11106
2.09192
2.0789
2.07254
2.06721
2.06373
2.05918
2.05108
2.03859
2.022
2.00415
1.99255
1.98613
1.98129
1.97762
1.97238
1.96367
1.95098
1.93531
1.92195
1.91347
1.90768
1.90209
1.89654
1.89147
1.88516
1.87623
1.86494
1.85494
1.84856
1.84459
1.84096
1.83632
1.82853
1.81684
1.80443
1.79479
1.78865
1.78387
1.78049
1.77167
2.2059
2.16408
2.11796
2.07118
2.02653
1.97729
1.92833
1.88778
1.84685
1.80212
1.76294
1.72919
1.6949
1.66358
1.63236
1.60194
1.57538
1.55475
1.53159
1.50343
1.47849
1.4779
1.53334
1.71506
1.8683
1.8941
1.87732
1.85632
1.84294
1.83116
1.81607
1.7961
1.76795
1.7438
1.73297
1.72573
1.71848
1.71411
1.70654
1.6951
1.68436
1.71164
1.83494
2.00144
2.12023
2.17631
2.18895
2.1852
2.16641
2.14544
2.13165
2.12417
2.11834
2.11495
2.10719
2.09732
2.08456
2.06824
2.05424
2.04643
2.04045
2.03411
2.02802
2.02186
2.01251
1.99844
1.9817
1.96981
1.96183
1.95436
1.94772
1.94268
1.93643
1.92634
1.91175
1.8967
1.88786
1.883
1.8794
1.87588
1.8716
1.86589
1.85778
1.84599
1.83466
1.82734
1.82175
1.81625
1.81064
1.80411
1.79532
1.78389
1.77287
1.76512
1.75946
1.7488
2.19485
2.15889
2.11758
2.07726
2.03665
1.99201
1.94999
1.91092
1.87079
1.82765
1.79438
1.76207
1.72619
1.68993
1.66425
1.63928
1.60928
1.58211
1.55921
1.53584
1.52995
1.59093
1.78108
1.93192
1.94151
1.92032
1.8943
1.87673
1.86432
1.84915
1.83251
1.81427
1.78784
1.75594
1.73687
1.72319
1.71055
1.70088
1.69142
1.68097
1.67267
1.65032
1.64457
1.69773
1.84959
2.00578
2.11902
2.14676
2.14677
2.13648
2.1163
2.10371
2.09609
2.08922
2.08426
2.07716
2.06889
2.05803
2.0425
2.02798
2.01948
2.01373
2.00822
2.00191
1.99514
1.98667
1.97378
1.95727
1.944
1.93483
1.92775
1.92167
1.91614
1.91032
1.90189
1.88958
1.87642
1.86822
1.86402
1.86039
1.85719
1.85304
1.84647
1.83611
1.82364
1.81222
1.80339
1.79676
1.79198
1.78746
1.78155
1.77249
1.76007
1.74756
1.7386
1.72746
2.1807
2.14957
2.11491
2.07995
2.04297
2.00252
1.96625
1.93012
1.89044
1.85099
1.81883
1.7868
1.7535
1.71946
1.69238
1.66612
1.63816
1.60884
1.58231
1.58376
1.64897
1.83351
1.99448
1.99547
1.97297
1.94235
1.91243
1.89407
1.88032
1.86514
1.84865
1.83102
1.80904
1.77892
1.75092
1.7328
1.71768
1.70221
1.68748
1.6742
1.66183
1.64602
1.62821
1.60983
1.6172
1.69616
1.86363
2.00045
2.08142
2.0998
2.10057
2.08918
2.07464
2.06671
2.0605
2.05446
2.04741
2.04049
2.02964
2.0132
2.00127
1.99505
1.98964
1.98397
1.97769
1.9705
1.96065
1.94536
1.929
1.91823
1.91091
1.90475
1.89919
1.89355
1.8874
1.87899
1.86676
1.85614
1.85051
1.84593
1.84061
1.83375
1.82694
1.82033
1.81091
1.7978
1.78692
1.78068
1.77557
1.77012
1.76398
1.75664
1.74614
1.73078
1.71873
1.70931
2.16398
2.13634
2.1078
2.07726
2.04262
2.00827
1.97613
1.94191
1.90281
1.86968
1.83984
1.80819
1.77371
1.74336
1.71776
1.69171
1.66142
1.63114
1.63386
1.71147
1.87922
2.0293
2.0399
2.01895
1.99194
1.96414
1.93222
1.90798
1.892
1.87624
1.85937
1.84163
1.82229
1.79813
1.76733
1.74248
1.72591
1.71028
1.69478
1.67952
1.66386
1.64778
1.62772
1.60425
1.59158
1.57937
1.59729
1.69391
1.84941
1.97205
2.0392
2.05071
2.05154
2.04246
2.03713
2.03297
2.0247
2.01797
2.00923
1.99433
1.98301
1.97747
1.97263
1.9673
1.9608
1.95283
1.94255
1.92844
1.91313
1.90375
1.89773
1.89203
1.88592
1.87948
1.87279
1.865
1.85429
1.84322
1.83571
1.82966
1.82328
1.81662
1.81004
1.80223
1.79222
1.78036
1.77066
1.7649
1.75981
1.75427
1.74813
1.74091
1.73125
1.71553
1.70355
1.69587
2.14733
2.12306
2.09775
2.07034
2.03943
2.0095
1.97936
1.94717
1.91208
1.88354
1.85424
1.8235
1.79125
1.76524
1.73828
1.70961
1.68121
1.69298
1.79786
1.95804
2.05428
2.06565
2.04589
2.0244
2.0049
1.98216
1.95329
1.92112
1.89987
1.88319
1.86648
1.8494
1.83157
1.81178
1.78715
1.75814
1.73261
1.71335
1.69698
1.68158
1.66629
1.6505
1.63358
1.61401
1.59092
1.57049
1.5609
1.55114
1.57624
1.68081
1.82883
1.93661
1.99319
2.00172
2.0113
2.00873
2.00087
1.99368
1.98302
1.96708
1.9577
1.95423
1.95112
1.94743
1.94224
1.93468
1.92316
1.90558
1.89124
1.88607
1.88188
1.8775
1.8728
1.86701
1.85896
1.8482
1.83705
1.8277
1.81907
1.81223
1.80665
1.80115
1.79451
1.78617
1.77615
1.76549
1.75723
1.75053
1.74478
1.73926
1.73313
1.72618
1.71756
1.70452
1.69435
1.68792
2.13381
2.11155
2.08763
2.0613
2.03388
2.00736
1.97905
1.94834
1.91921
1.89262
1.86461
1.8343
1.80527
1.77906
1.75379
1.72744
1.74546
1.8736
2.05584
2.11318
2.10222
2.07383
2.04827
2.03176
2.01474
1.99366
1.96876
1.93716
1.90779
1.88809
1.87063
1.85308
1.8352
1.81655
1.7959
1.77107
1.7436
1.71993
1.7007
1.68287
1.66593
1.65049
1.63634
1.62097
1.6027
1.58094
1.55792
1.53914
1.52849
1.52245
1.55407
1.66007
1.80036
1.89502
1.94427
1.96289
1.96967
1.96602
1.95408
1.93968
1.92844
1.92332
1.9216
1.92
1.91746
1.9133
1.90428
1.88617
1.8693
1.86323
1.85987
1.85697
1.85387
1.85021
1.84429
1.83356
1.81759
1.80232
1.79569
1.79233
1.78909
1.78512
1.78016
1.77401
1.76547
1.75288
1.73832
1.72913
1.72357
1.71842
1.71359
1.70904
1.70422
1.69814
1.68997
1.67556
2.11597
2.09646
2.07439
2.05003
2.0266
2.00208
1.97609
1.94759
1.92364
1.89731
1.87075
1.84127
1.81409
1.79111
1.77086
1.80133
1.93334
2.10835
2.16038
2.14016
2.10861
2.07766
2.05264
2.03496
2.01704
1.99656
1.97491
1.94962
1.91935
1.89297
1.87299
1.8548
1.83664
1.81793
1.79848
1.77765
1.75365
1.72711
1.70347
1.6843
1.66736
1.65136
1.63587
1.6202
1.60377
1.585
1.56426
1.54371
1.52448
1.50686
1.49568
1.4951
1.53082
1.64044
1.76177
1.85512
1.89787
1.91782
1.91984
1.9133
1.90261
1.89297
1.88613
1.88499
1.88592
1.88463
1.87913
1.86929
1.85488
1.83982
1.83155
1.82828
1.82716
1.8265
1.82364
1.81615
1.80041
1.78167
1.77253
1.76922
1.76698
1.76463
1.76152
1.75783
1.75267
1.74081
1.72171
1.71088
1.70632
1.70242
1.69865
1.69496
1.69158
1.68807
1.68175
1.66369
2.09614
2.07953
2.06035
2.03989
2.01914
1.99648
1.97108
1.94725
1.92402
1.89906
1.87313
1.84387
1.82227
1.81267
1.86474
2.02107
2.13926
2.18618
2.17765
2.14808
2.11892
2.0869
2.05515
2.03352
2.01541
1.99686
1.97747
1.95641
1.93104
1.90135
1.87449
1.85335
1.8345
1.81601
1.79743
1.7783
1.75751
1.73413
1.70889
1.68509
1.66505
1.64736
1.63119
1.61568
1.60029
1.58409
1.56592
1.54666
1.52711
1.50932
1.49168
1.47625
1.46496
1.46848
1.5047
1.61195
1.72565
1.81904
1.85771
1.87336
1.87314
1.86738
1.8591
1.8504
1.84324
1.84273
1.8429
1.8415
1.83509
1.82288
1.80912
1.80055
1.79648
1.79411
1.79321
1.79158
1.783
1.76736
1.75262
1.74666
1.74439
1.74277
1.74234
1.74201
1.7384
1.72777
1.70885
1.69516
1.69091
1.68805
1.68555
1.68424
1.68274
1.67918
1.67198
1.65298
2.08526
2.06718
2.04872
2.03035
2.01112
1.98994
1.96622
1.94565
1.92173
1.89878
1.87155
1.84802
1.85289
1.931
2.11321
2.21362
2.20299
2.18868
2.16548
2.14459
2.12367
2.09707
2.06384
2.03327
2.01273
1.99526
1.97694
1.95658
1.93368
1.90744
1.87879
1.85191
1.82957
1.80993
1.79122
1.77278
1.75416
1.73417
1.71174
1.68827
1.6661
1.64573
1.62718
1.60986
1.59345
1.57713
1.5604
1.54373
1.52646
1.51016
1.49384
1.47735
1.46126
1.44959
1.43861
1.44289
1.48498
1.58868
1.70119
1.7849
1.81832
1.83227
1.8359
1.82782
1.81375
1.80986
1.80891
1.80705
1.80486
1.80013
1.79019
1.77644
1.76724
1.76289
1.75978
1.7565
1.7535
1.74725
1.7382
1.72984
1.72461
1.72185
1.71932
1.71496
1.70957
1.70413
1.69451
1.68426
1.67778
1.67377
1.67092
1.66842
1.66504
1.66056
1.65488
1.63989
2.06899
2.05197
2.03527
2.01862
2.0009
1.97987
1.96052
1.93984
1.91747
1.89585
1.87571
1.89548
2.00241
2.15703
2.26759
2.26144
2.22001
2.17894
2.1527
2.13721
2.12272
2.10073
2.07332
2.04076
2.01231
1.99139
1.97211
1.95187
1.93011
1.9066
1.88054
1.85276
1.82663
1.80381
1.78313
1.7635
1.74468
1.72618
1.70686
1.68624
1.66478
1.64399
1.62483
1.6067
1.58922
1.57197
1.55507
1.53878
1.52305
1.50832
1.49435
1.48044
1.46627
1.45149
1.43769
1.42669
1.4162
1.42284
1.47461
1.57901
1.67789
1.747
1.79116
1.79884
1.79597
1.79004
1.78406
1.778
1.77498
1.77319
1.76844
1.75806
1.74649
1.73767
1.73168
1.72746
1.7249
1.72274
1.71879
1.71222
1.70491
1.69941
1.69485
1.68955
1.68338
1.67641
1.67108
1.66667
1.66199
1.65795
1.65468
1.6511
1.64677
1.64258
1.63898
1.62829
2.04791
2.03595
2.01925
2.00426
1.98874
1.96969
1.95314
1.93133
1.91372
1.90678
1.95438
2.09225
2.21308
2.26972
2.26875
2.24423
2.21309
2.17601
2.14978
2.13409
2.11994
2.09969
2.07498
2.04389
2.01129
1.98672
1.96535
1.9437
1.92147
1.89863
1.87458
1.84884
1.82252
1.79791
1.77567
1.75501
1.73535
1.71666
1.69817
1.67922
1.65936
1.63914
1.62008
1.60262
1.58664
1.57126
1.55589
1.53989
1.52342
1.50687
1.49132
1.47817
1.46673
1.45608
1.44488
1.42987
1.41593
1.40653
1.39934
1.41024
1.46718
1.56176
1.66834
1.72757
1.75616
1.76992
1.76909
1.76212
1.75373
1.74713
1.74311
1.73826
1.72775
1.71889
1.71441
1.71061
1.70675
1.7036
1.70047
1.69506
1.68712
1.67966
1.67287
1.66624
1.65892
1.6526
1.64834
1.64471
1.643
1.64289
1.64181
1.63806
1.63214
1.62633
1.62032
1.60953
1.94732
2.02358
2.00782
1.99016
1.97281
1.95791
1.94141
1.9296
1.93954
2.02405
2.18603
2.27496
2.2842
2.27572
2.24856
2.22541
2.20546
2.1775
2.15182
2.13204
2.11265
2.09138
2.06717
2.03805
2.00668
1.98034
1.9572
1.93412
1.91054
1.88685
1.86303
1.83848
1.81344
1.78959
1.76815
1.74864
1.72995
1.71165
1.69323
1.67418
1.65439
1.63419
1.61489
1.59772
1.58301
1.56944
1.5562
1.54232
1.52764
1.51208
1.49607
1.48105
1.46683
1.45374
1.4425
1.43401
1.42635
1.41242
1.39906
1.39031
1.38735
1.40298
1.4607
1.56458
1.65306
1.72359
1.7407
1.74192
1.7379
1.72692
1.71831
1.71162
1.70879
1.70751
1.70533
1.70177
1.6964
1.68906
1.68002
1.66974
1.6602
1.65294
1.64825
1.64356
1.63872
1.63515
1.63109
1.62787
1.62599
1.62312
1.61812
1.6135
1.609
1.60535
1.60064
1.59437
1.68205
1.95092
2.00033
1.98413
1.95864
1.94318
1.94456
1.98875
2.10696
2.23263
2.31524
2.30769
2.27535
2.25563
2.23378
2.21492
2.19661
2.17164
2.14451
2.12169
2.10004
2.07788
2.05418
2.02719
1.9974
1.97009
1.94631
1.92351
1.90065
1.87788
1.85471
1.8305
1.80562
1.78201
1.76112
1.7426
1.7252
1.70821
1.69112
1.67299
1.65357
1.63317
1.6133
1.59638
1.58258
1.56988
1.55736
1.54438
1.53096
1.51685
1.5017
1.48704
1.4737
1.46253
1.45305
1.44408
1.43496
1.42632
1.41882
1.40441
1.38906
1.37948
1.37799
1.39979
1.46124
1.56596
1.65096
1.71386
1.72252
1.71917
1.71014
1.70238
1.69645
1.69279
1.68855
1.68298
1.67619
1.66819
1.66051
1.65173
1.64302
1.63704
1.63309
1.62967
1.62439
1.61463
1.61132
1.61232
1.61088
1.60557
1.59835
1.59391
1.59086
1.58757
1.58441
1.5894
1.21813
1.73947
1.96466
1.96356
1.94693
1.95701
2.05151
2.20663
2.28078
2.30211
2.30156
2.28365
2.25728
2.23613
2.22178
2.20461
2.18351
2.15884
2.13125
2.1067
2.0854
2.06423
2.04173
2.0166
1.98836
1.96061
1.9363
1.91442
1.89351
1.8724
1.85056
1.82752
1.80356
1.78043
1.7593
1.73988
1.72209
1.70532
1.68882
1.67167
1.65309
1.63466
1.61656
1.60047
1.58752
1.57586
1.56428
1.55187
1.53825
1.52359
1.50861
1.49549
1.48428
1.47499
1.46688
1.45934
1.45185
1.44279
1.43089
1.41711
1.40311
1.39027
1.38118
1.37631
1.37473
1.39903
1.46895
1.57615
1.64288
1.69051
1.69929
1.69872
1.6977
1.69454
1.68699
1.67962
1.67246
1.66203
1.6463
1.63608
1.63411
1.63284
1.6303
1.62618
1.61831
1.60616
1.596
1.58786
1.58401
1.58252
1.58153
1.57868
1.57839
1.58009
1.58883
1.64554
1.01278
1.31255
1.81423
1.90136
1.97106
2.11746
2.26648
2.33476
2.31242
2.29535
2.27825
2.26338
2.2432
2.22214
2.2081
2.19234
2.17185
2.14972
2.12529
2.10021
2.07718
2.0554
2.03301
2.00881
1.98264
1.95629
1.93301
1.9126
1.89341
1.87413
1.85394
1.83217
1.80882
1.7859
1.7667
1.75239
1.73904
1.72395
1.70786
1.69035
1.67039
1.65027
1.63484
1.62343
1.61221
1.60027
1.58779
1.57461
1.56079
1.54664
1.53276
1.52025
1.50878
1.49857
1.48928
1.48045
1.47143
1.46052
1.44602
1.43223
1.42042
1.40751
1.39461
1.38042
1.37011
1.36074
1.36399
1.39591
1.47517
1.57102
1.62822
1.66309
1.68527
1.68521
1.68552
1.68423
1.67834
1.66601
1.64956
1.63337
1.62548
1.6219
1.61872
1.61507
1.61051
1.60514
1.59457
1.57866
1.56896
1.56877
1.56874
1.57063
1.58542
1.62652
1.68423
1.77963
1.00013
1.03096
1.42657
1.72138
2.18811
2.33473
2.37505
2.36279
2.33339
2.3063
2.28795
2.2737
2.25427
2.23058
2.21212
2.1976
2.17755
2.15298
2.12761
2.10141
2.07583
2.052
2.02857
2.00489
1.98143
1.95891
1.93842
1.91992
1.90232
1.88454
1.86544
1.84452
1.8224
1.80066
1.78082
1.76314
1.74683
1.73151
1.71632
1.7005
1.68363
1.66709
1.65155
1.63655
1.62213
1.60763
1.59307
1.57882
1.56552
1.55296
1.54075
1.52901
1.51752
1.50705
1.49638
1.48536
1.47438
1.46392
1.45374
1.44147
1.42777
1.41252
1.39915
1.38722
1.37668
1.36511
1.35705
1.35071
1.35829
1.39529
1.47983
1.5757
1.63588
1.64879
1.66621
1.67537
1.67332
1.66913
1.65726
1.6367
1.62593
1.62187
1.61777
1.61263
1.60611
1.59839
1.5883
1.57441
1.56704
1.56882
1.58284
1.62782
1.69524
1.77221
1.82866
1.85153
1
1.00055
1.05709
1.83605
2.54764
2.53717
2.4751
2.43339
2.39752
2.36138
2.33567
2.31453
2.29008
2.26341
2.24115
2.2233
2.20413
2.18221
2.15756
2.13157
2.10587
2.08215
2.05963
2.03765
2.01638
1.99633
1.97747
1.95984
1.9427
1.92496
1.90574
1.88471
1.86234
1.83952
1.81678
1.79418
1.77399
1.75633
1.73997
1.72444
1.71034
1.69622
1.67987
1.66219
1.64483
1.6284
1.61269
1.59754
1.58357
1.57099
1.55987
1.54986
1.53989
1.52957
1.51748
1.5043
1.49044
1.47777
1.46782
1.45682
1.44302
1.42762
1.41356
1.40188
1.38982
1.37611
1.36283
1.3493
1.34289
1.33929
1.35316
1.3999
1.48769
1.56946
1.62926
1.66189
1.66444
1.66233
1.65278
1.63888
1.62745
1.61866
1.61253
1.60787
1.60401
1.6011
1.59268
1.58659
1.59801
1.63922
1.70921
1.78018
1.8348
1.87713
1.88479
1.87774
1
1
1.00137
2.15595
2.75507
2.69501
2.60387
2.55036
2.50809
2.46748
2.4347
2.40421
2.37456
2.3459
2.31673
2.28997
2.26443
2.23719
2.20912
2.18188
2.1548
2.12961
2.10709
2.08598
2.06559
2.04559
2.02585
2.00633
1.98652
1.96574
1.9436
1.92013
1.8958
1.87157
1.84853
1.82695
1.80645
1.78634
1.76616
1.74634
1.72747
1.70994
1.69366
1.67886
1.66462
1.64982
1.63424
1.61791
1.60162
1.5865
1.57358
1.56302
1.55407
1.54561
1.53562
1.52355
1.50912
1.49208
1.47356
1.45748
1.44475
1.43261
1.42011
1.40575
1.38972
1.37288
1.35825
1.34724
1.33914
1.33342
1.32873
1.32792
1.3447
1.40448
1.49237
1.57814
1.63145
1.6579
1.65665
1.65213
1.63929
1.6268
1.61951
1.61516
1.6125
1.61712
1.63772
1.68438
1.74259
1.80365
1.85045
1.87631
1.88909
1.89077
1.88771
1.87347
1
1
1.00864
2.32974
2.79505
2.78822
2.74343
2.70134
2.65823
2.61525
2.57684
2.53951
2.50128
2.46301
2.42775
2.39563
2.36629
2.33566
2.30173
2.27006
2.24158
2.21479
2.19025
2.16701
2.14394
2.12072
2.0974
2.07388
2.0497
2.02433
1.9976
1.96981
1.94184
1.91487
1.88975
1.86626
1.84375
1.82144
1.79899
1.77685
1.75577
1.73634
1.7189
1.70336
1.68817
1.67215
1.655
1.6371
1.61945
1.60343
1.59016
1.57914
1.56976
1.56106
1.55158
1.53992
1.52389
1.50355
1.48258
1.46542
1.45222
1.44019
1.42811
1.41437
1.3985
1.38046
1.36354
1.35121
1.34119
1.33421
1.32781
1.32273
1.31732
1.32055
1.34261
1.4167
1.51108
1.59737
1.62708
1.64335
1.63883
1.63704
1.63675
1.64575
1.67507
1.72672
1.79528
1.85585
1.88968
1.90636
1.91343
1.91118
1.9063
1.89459
1.88005
1.85975
1
1
1.11329
2.38891
2.77836
2.81342
2.80032
2.78019
2.75036
2.71512
2.67661
2.63671
2.59602
2.55565
2.51711
2.48116
2.44568
2.40925
2.37284
2.33845
2.30796
2.27975
2.25239
2.22563
2.19896
2.17254
2.14632
2.11979
2.0921
2.06248
2.0308
1.99818
1.96688
1.93846
1.9129
1.88932
1.86676
1.84425
1.82102
1.79694
1.77343
1.75241
1.73406
1.71746
1.70138
1.68501
1.66792
1.65003
1.63184
1.61501
1.60139
1.59035
1.58104
1.5718
1.56101
1.54744
1.52971
1.50886
1.48844
1.47195
1.4584
1.44558
1.43311
1.41996
1.40518
1.38698
1.36832
1.35523
1.3454
1.33735
1.32959
1.32311
1.31614
1.31081
1.30343
1.31101
1.34894
1.43578
1.53086
1.60442
1.62909
1.66472
1.72002
1.77544
1.82189
1.86403
1.89892
1.91728
1.92956
1.92884
1.92258
1.91031
1.89925
1.88752
1.87491
1.8569
1
1
1.13568
2.39431
2.76078
2.80553
2.80376
2.79602
2.77694
2.74959
2.715
2.6772
2.63844
2.60095
2.56394
2.52682
2.48913
2.45106
2.41331
2.377
2.34411
2.31239
2.28126
2.25202
2.22324
2.19483
2.16668
2.13807
2.10804
2.07585
2.04157
2.00684
1.97454
1.94612
1.92105
1.89807
1.87593
1.85324
1.82887
1.80302
1.7781
1.75648
1.73787
1.72102
1.70487
1.6889
1.67256
1.65522
1.63673
1.61922
1.60541
1.59431
1.58471
1.57474
1.56308
1.54895
1.53136
1.51171
1.49277
1.47624
1.46138
1.44694
1.43308
1.41896
1.40484
1.39048
1.37474
1.35898
1.34561
1.33679
1.32907
1.32301
1.31741
1.30885
1.30088
1.29192
1.29263
1.31068
1.37505
1.48956
1.63916
1.76283
1.85364
1.93218
1.98417
2.02286
2.02114
2.0022
1.97509
1.94543
1.92119
1.90513
1.89093
1.87777
1.86754
1.85228
)
;

boundaryField
{
    inlet
    {
        type            fixedValue;
        value           uniform 1;
    }
    outlet
    {
        type            inletOutlet;
        inletValue      uniform 1;
        value           nonuniform List<scalar> 
32
(
1.93036
1.92787
1.91331
1.89289
1.87066
1.84672
1.8261
1.81394
1.80229
1.79161
1.7717
1.74855
1.72735
1.71011
1.69687
1.68899
1.67477
1.66194
1.65092
1.6385
1.62749
1.60889
1.59399
1.58905
1.64369
1.77761
1.85036
1.87647
1.872
1.8589
1.85624
1.85169
)
;
    }
    bottom
    {
        type            symmetryPlane;
    }
    top
    {
        type            symmetryPlane;
    }
    obstacle
    {
        type            zeroGradient;
    }
    defaultFaces
    {
        type            empty;
    }
}


// ************************************************************************* //
