/*--------------------------------*- C++ -*----------------------------------*\
  =========                 |
  \\      /  F ield         | OpenFOAM: The Open Source CFD Toolbox
   \\    /   O peration     | Website:  https://openfoam.org
    \\  /    A nd           | Version:  7
     \\/     M anipulation  |
\*---------------------------------------------------------------------------*/
FoamFile
{
    version     2.0;
    format      ascii;
    class       volScalarField;
    location    "1.7";
    object      p;
}
// * * * * * * * * * * * * * * * * * * * * * * * * * * * * * * * * * * * * * //

dimensions      [1 -1 -2 0 0 0 0];

internalField   nonuniform List<scalar> 
64512
(
1
1
1
1
1
1
1
1
1
1
1
1
1
1
1
1
1
1
1
1
1
1
1
1
1
1
1
1
1
1
1
1
1
1
1
1
1
1
1
1
1
1
1
1
1
1
1
1
1
1
2.01204
8.73582
10.5261
10.5362
10.6089
10.6679
10.7342
10.7962
10.8544
10.9067
10.9555
11.0067
11.0622
11.1198
11.1758
11.2287
11.2778
11.3224
11.3643
11.4082
11.4567
11.5105
11.5664
11.6182
11.6592
11.6891
11.7125
11.7344
11.7618
11.7956
11.8341
11.8723
11.9041
11.9272
11.9432
11.9577
11.9749
11.9978
12.0258
12.0534
12.075
12.0908
12.1005
12.1038
12.1019
12.1012
1
1
1
1
1
1
1
1
1
1
1
1
1
1
1
1
1
1
1
1
1
1
1
1
1
1
1
1
1
1
1
1
1
1
1
1
1
1
1
1
1
1
1
1
1
1
1
1
1
1
1.99332
8.69842
10.519
10.5397
10.6074
10.6688
10.7352
10.7954
10.8518
10.9042
10.9545
11.007
11.0632
11.1207
11.176
11.2276
11.276
11.3204
11.3627
11.4065
11.4545
11.5072
11.5616
11.6125
11.6536
11.6841
11.7087
11.7317
11.7597
11.7934
11.8316
11.8694
11.9012
11.9246
11.9414
11.9566
11.9742
11.9971
12.0247
12.0518
12.0728
12.0878
12.0966
12.0991
12.0972
12.0957
1
1
1
1
1
1
1
1
1
1
1
1
1
1
1
1
1
1
1
1
1
1
1
1
1
1
1
1
1
1
1
1
1
1
1
1
1
1
1
1
1
1
1
1
1
1
1
1
1
1
1.94615
8.63057
10.5142
10.5335
10.6023
10.667
10.7336
10.7921
10.8473
10.9001
10.9517
11.0057
11.063
11.1212
11.1764
11.227
11.2744
11.318
11.3601
11.4036
11.4509
11.5026
11.5553
11.6047
11.6451
11.6756
11.7016
11.7269
11.7566
11.7906
11.828
11.8644
11.8955
11.9197
11.9381
11.9547
11.9732
11.9961
12.0228
12.0485
12.0682
12.0818
12.0893
12.0915
12.0907
12.0893
1
1
1
1
1
1
1
1
1
1
1
1
1
1
1
1
1
1
1
1
1
1
1
1
1
1
1
1
1
1
1
1
1
1
1
1
1
1
1
1
1
1
1
1
1
1
1
1
1
1
1.87027
8.53346
10.5094
10.5302
10.6003
10.6668
10.7313
10.7884
10.843
10.8961
10.9482
11.0031
11.0611
11.12
11.1755
11.226
11.2725
11.3151
11.3561
11.3988
11.4449
11.4953
11.5463
11.5942
11.6336
11.6641
11.6917
11.7196
11.7514
11.7864
11.823
11.8575
11.8876
11.9125
11.933
11.9516
11.9712
11.9941
12.0195
12.0437
12.0618
12.0736
12.0796
12.0809
12.0804
12.0784
1
1
1
1
1
1
1
1
1
1
1
1
1
1
1
1
1
1
1
1
1
1
1
1
1
1
1
1
1
1
1
1
1
1
1
1
1
1
1
1
1
1
1
1
1
1
1
1
1
1
1.76447
8.3948
10.5062
10.5277
10.5948
10.6594
10.7229
10.7817
10.8393
10.8932
10.9463
11.0013
11.0589
11.1177
11.1733
11.224
11.2702
11.3117
11.3511
11.3923
11.4371
11.4863
11.5359
11.5824
11.6206
11.6508
11.6797
11.7103
11.7448
11.7811
11.817
11.8494
11.8777
11.9029
11.9255
11.9467
11.9678
11.9906
12.0147
12.0371
12.0534
12.0635
12.0679
12.0681
12.0671
12.064
1
1
1
1
1
1
1
1
1
1
1
1
1
1
1
1
1
1
1
1
1
1
1
1
1
1
1
1
1
1
1
1
1
1
1
1
1
1
1
1
1
1
1
1
1
1
1
1
1
1
1.64395
8.2101
10.5005
10.5271
10.5902
10.6492
10.7118
10.7747
10.8346
10.8901
10.9445
10.9993
11.0558
11.1137
11.169
11.22
11.2661
11.3069
11.3447
11.3845
11.4281
11.4764
11.5243
11.5692
11.6059
11.6357
11.6656
11.6987
11.736
11.7738
11.8091
11.8393
11.8657
11.8907
11.9153
11.9392
11.9623
11.9852
12.008
12.0286
12.0428
12.0515
12.0545
12.0532
12.0509
12.0466
1
1
1
1
1
1
1
1
1
1
1
1
1
1
1
1
1
1
1
1
1
1
1
1
1
1
1
1
1
1
1
1
1
1
1
1
1
1
1
1
1
1
1
1
1
1
1
1
1
1
1.52301
7.98214
10.4834
10.5327
10.5841
10.6416
10.7035
10.7664
10.8272
10.8847
10.9404
10.9954
11.0515
11.109
11.1636
11.2142
11.2596
11.2992
11.3357
11.3749
11.4181
11.4656
11.5117
11.5544
11.5893
11.6186
11.6497
11.6854
11.7253
11.7645
11.7994
11.8276
11.8521
11.8766
11.9027
11.9294
11.9545
11.9777
11.9995
12.018
12.03
12.0374
12.039
12.0361
12.032
12.0266
1
1
1
1
1
1
1
1
1
1
1
1
1
1
1
1
1
1
1
1
1
1
1
1
1
1
1
1
1
1
1
1
1
1
1
1
1
1
1
1
1
1
1
1
1
1
1
1
1
1
1.40164
7.70942
10.4691
10.5249
10.5796
10.6364
10.6984
10.761
10.8212
10.8783
10.934
10.989
11.0447
11.1012
11.155
11.2052
11.2499
11.2887
11.3248
11.3642
11.4075
11.4542
11.498
11.5375
11.5701
11.5995
11.6323
11.6708
11.7131
11.7533
11.7875
11.8139
11.8365
11.8601
11.8873
11.9164
11.9438
11.9675
11.9889
12.0051
12.0144
12.0205
12.0209
12.0167
12.0112
12.0053
1
1
1
1
1
1
1
1
1
1
1
1
1
1
1
1
1
1
1
1
1
1
1
1
1
1
1
1
1
1
1
1
1
1
1
1
1
1
1
1
1
1
1
1
1
1
1
1
1
1
1.27162
7.37304
10.444
10.5123
10.5696
10.6327
10.6985
10.761
10.8184
10.8718
10.924
10.9772
11.0328
11.0898
11.1439
11.1939
11.2378
11.2755
11.3112
11.3514
11.3953
11.4411
11.482
11.5178
11.5482
11.5783
11.6137
11.6552
11.6993
11.7399
11.7729
11.7975
11.8185
11.8415
11.8694
11.9006
11.9301
11.9548
11.9758
11.9896
11.9961
12.0003
11.9996
11.9947
11.9887
11.9832
1
1
1
1
1
1
1
1
1
1
1
1
1
1
1
1
1
1
1
1
1
1
1
1
1
1
1
1
1
1
1
1
1
1
1
1
1
1
1
1
1
1
1
1
1
1
1
1
1
1
1.10558
6.96045
10.4621
10.5108
10.5673
10.6291
10.6916
10.7518
10.8084
10.8616
10.9136
10.9657
11.02
11.0757
11.1293
11.1794
11.223
11.2605
11.297
11.3385
11.3828
11.427
11.4645
11.4958
11.5244
11.5556
11.5938
11.6377
11.683
11.7233
11.755
11.7782
11.7983
11.821
11.8494
11.8822
11.9134
11.9391
11.9593
11.9707
11.9747
11.9768
11.9751
11.9705
11.965
11.9606
1
1
1
1
1
1
1
1
1
1
1
1
1
1
1
1
1
1
1
1
1
1
1
1
1
1
1
1
1
1
1
1
1
1
1
1
1
1
1
1
1
1
1
1
1
1
1
1
1
1
1.0043
6.49793
10.4456
10.4936
10.546
10.6119
10.677
10.7406
10.7997
10.8526
10.9018
10.9506
11.003
11.0579
11.1116
11.1623
11.2066
11.2448
11.2827
11.3253
11.3693
11.4109
11.4445
11.472
11.4999
11.5326
11.573
11.6183
11.6637
11.7033
11.7338
11.7563
11.7759
11.7986
11.8273
11.8608
11.893
11.9195
11.9391
11.9485
11.9501
11.9502
11.9479
11.9442
11.9402
11.9373
1
1
1
1
1
1
1
1
1
1
1
1
1
1
1
1
1
1
1
1
1
1
1
1
1
1
1
1
1
1
1
1
1
1
1
1
1
1
1
1
1
1
1
1
1
1
1
1
1
1
1.00003
5.92844
10.3886
10.4861
10.5334
10.6027
10.6669
10.7291
10.7871
10.8388
10.8862
10.9336
10.9853
11.0389
11.0916
11.1418
11.1869
11.2268
11.2675
11.3118
11.3552
11.3936
11.4231
11.4476
11.4761
11.51
11.5511
11.596
11.6405
11.6789
11.709
11.7315
11.7516
11.7747
11.8034
11.8368
11.8689
11.8956
11.9143
11.922
11.9219
11.9204
11.9179
11.9155
11.9136
11.9122
1
1
1
1
1
1
1
1
1
1
1
1
1
1
1
1
1
1
1
1
1
1
1
1
1
1
1
1
1
1
1
1
1
1
1
1
1
1
1
1
1
1
1
1
1
1
1
1
1
1
1
5.32878
10.3016
10.4806
10.5217
10.5921
10.6545
10.7152
10.7729
10.8243
10.8705
10.9166
10.9671
11.0192
11.0703
11.1197
11.1653
11.2072
11.2505
11.2954
11.3368
11.3718
11.3984
11.4228
11.4537
11.4887
11.5293
11.5722
11.6143
11.6509
11.6806
11.7039
11.7251
11.749
11.7774
11.8098
11.8406
11.8663
11.8841
11.891
11.8902
11.8882
11.8861
11.8853
11.8857
11.8858
1
1
1
1
1
1
1
1
1
1
1
1
1
1
1
1
1
1
1
1
1
1
1
1
1
1
1
1
1
1
1
1
1
1
1
1
1
1
1
1
1
1
1
1
1
1
1
1
1
1
1
4.71061
10.1704
10.4728
10.5101
10.5815
10.6401
10.6986
10.7553
10.8077
10.8552
10.9026
10.9525
11.0017
11.049
11.0956
11.1407
11.1845
11.2297
11.2741
11.3138
11.3469
11.373
11.4
11.4334
11.4684
11.507
11.5462
11.5848
11.6189
11.648
11.6724
11.6952
11.7206
11.7489
11.7798
11.8082
11.8319
11.8486
11.8555
11.8553
11.8538
11.8525
11.853
11.8554
11.8566
1
1
1
1
1
1
1
1
1
1
1
1
1
1
1
1
1
1
1
1
1
1
1
1
1
1
1
1
1
1
1
1
1
1
1
1
1
1
1
1
1
1
1
1
1
1
1
1
1
1
1
4.08309
9.99672
10.458
10.4966
10.5693
10.6261
10.6836
10.7388
10.7904
10.8366
10.8823
10.9304
10.9779
11.0241
11.0698
11.1152
11.1602
11.2051
11.2477
11.2859
11.3192
11.3476
11.3782
11.413
11.4471
11.4835
11.5196
11.5551
11.5861
11.6135
11.6377
11.6618
11.6886
11.7169
11.746
11.7714
11.7923
11.8078
11.8153
11.8165
11.8164
11.8165
11.8182
11.8219
11.8236
1
1
1
1
1
1
1
1
1
1
1
1
1
1
1
1
1
1
1
1
1
1
1
1
1
1
1
1
1
1
1
1
1
1
1
1
1
1
1
1
1
1
1
1
1
1
1
1
1
1
1
3.46253
9.75283
10.4493
10.4891
10.5574
10.6102
10.6653
10.7198
10.7725
10.8186
10.8627
10.9081
10.954
10.9991
11.0441
11.0889
11.1328
11.1756
11.2163
11.2543
11.2899
11.3223
11.3559
11.391
11.424
11.4587
11.4928
11.5252
11.5525
11.5767
11.599
11.6234
11.6517
11.681
11.709
11.7316
11.7495
11.7634
11.7711
11.7738
11.7754
11.777
11.7798
11.7841
11.786
1
1
1
1
1
1
1
1
1
1
1
1
1
1
1
1
1
1
1
1
1
1
1
1
1
1
1
1
1
1
1
1
1
1
1
1
1
1
1
1
1
1
1
1
1
1
1
1
1
1
1
2.87757
9.40187
10.4395
10.4804
10.5414
10.5918
10.6469
10.6996
10.7509
10.7977
10.8405
10.8841
10.929
10.9733
11.0175
11.061
11.1031
11.1436
11.1829
11.2215
11.2598
11.2953
11.3301
11.3635
11.3952
11.4289
11.4628
11.4937
11.5187
11.54
11.5596
11.5824
11.6101
11.6389
11.6658
11.6861
11.7016
11.7141
11.722
11.7262
11.7298
11.7333
11.7373
11.7421
11.7441
1
1
1
1
1
1
1
1
1
1
1
1
1
1
1
1
1
1
1
1
1
1
1
1
1
1
1
1
1
1
1
1
1
1
1
1
1
1
1
1
1
1
1
1
1
1
1
1
1
1
1
2.32967
8.94006
10.4448
10.4782
10.5322
10.5794
10.6318
10.6834
10.733
10.7788
10.8207
10.8625
10.906
10.9484
10.9903
11.0312
11.0707
11.1097
11.1491
11.1889
11.2286
11.2642
11.2977
11.3293
11.3609
11.3949
11.4294
11.4593
11.4828
11.5003
11.5164
11.5358
11.5622
11.5906
11.6174
11.6372
11.6514
11.6627
11.6697
11.6744
11.6792
11.6841
11.6893
11.6945
11.697
1
1
1
1
1
1
1
1
1
1
1
1
1
1
1
1
1
1
1
1
1
1
1
1
1
1
1
1
1
1
1
1
1
1
1
1
1
1
1
1
1
1
1
1
1
1
1
1
1
1
1
1.82403
8.38249
10.468
10.466
10.5089
10.5563
10.6092
10.6601
10.7091
10.7548
10.7974
10.8393
10.8821
10.9226
10.9609
10.9981
11.0353
11.0744
11.1161
11.1584
11.1987
11.2324
11.2621
11.2899
11.3196
11.3538
11.3892
11.42
11.4437
11.459
11.4721
11.4875
11.5116
11.5383
11.5645
11.584
11.5976
11.6073
11.6126
11.617
11.6222
11.6282
11.6348
11.641
11.6445
1
1
1
1
1
1
1
1
1
1
1
1
1
1
1
1
1
1
1
1
1
1
1
1
1
1
1
1
1
1
1
1
1
1
1
1
1
1
1
1
1
1
1
1
1
1
1
1
1
1
1
1.39265
7.74118
10.4915
10.4556
10.4917
10.541
10.5935
10.6422
10.6898
10.7348
10.7775
10.8192
10.8606
10.8978
10.9315
10.9644
10.9997
11.0401
11.0848
11.1296
11.169
11.1992
11.2243
11.2483
11.2761
11.3096
11.3449
11.3764
11.4002
11.4139
11.4241
11.436
11.4572
11.4816
11.5066
11.526
11.5401
11.5486
11.5514
11.5545
11.5587
11.5647
11.5721
11.5794
11.5841
1
1
1
1
1
1
1
1
1
1
1
1
1
1
1
1
1
1
1
1
1
1
1
1
1
1
1
1
1
1
1
1
1
1
1
1
1
1
1
1
1
1
1
1
1
1
1
1
1
1
1
1.07769
7.0229
10.3929
10.3864
10.4292
10.4886
10.5471
10.6017
10.6512
10.697
10.74
10.782
10.8238
10.8613
10.8952
10.9284
10.9648
11.007
11.0535
11.0989
11.1366
11.1638
11.1849
11.2056
11.2304
11.2615
11.295
11.3262
11.3498
11.3626
11.3711
11.3804
11.3985
11.4207
11.4443
11.4634
11.4775
11.4843
11.4845
11.485
11.4871
11.4925
11.5008
11.5097
11.5164
1
1
1
1
1
1
1
1
1
1
1
1
1
1
1
1
1
1
1
1
1
1
1
1
1
1
1
1
1
1
1
1
1
1
1
1
1
1
1
1
1
1
1
1
1
1
1
1
1
1
1
1.00173
6.12181
10.254
10.3375
10.3974
10.4645
10.5246
10.5811
10.6319
10.6787
10.7208
10.7594
10.7976
10.8327
10.8653
10.8983
10.9346
10.976
11.0206
11.0632
11.098
11.1232
11.1421
11.1609
11.1834
11.2118
11.2426
11.2719
11.294
11.3055
11.3124
11.3197
11.3348
11.3552
11.3774
11.3957
11.4089
11.4137
11.4116
11.409
11.4077
11.4112
11.4191
11.429
11.4372
1
1
1
1
1
1
1
1
1
1
1
1
1
1
1
1
1
1
1
1
1
1
1
1
1
1
1
1
1
1
1
1
1
1
1
1
1
1
1
1
1
1
1
1
1
1
1
1
1
1
1
1
5.16538
10.0601
10.2811
10.3511
10.4238
10.4881
10.5483
10.6013
10.6487
10.6898
10.7261
10.7627
10.7976
10.8306
10.8643
10.9008
10.9411
10.983
11.0231
11.0555
11.0793
11.0963
11.1138
11.1344
11.1603
11.1879
11.2143
11.2338
11.2427
11.2476
11.2529
11.2656
11.2846
11.3055
11.3223
11.3332
11.3348
11.3298
11.3234
11.3185
11.3195
11.327
11.3377
11.3475
1
1
1
1
1
1
1
1
1
1
1
1
1
1
1
1
1
1
1
1
1
1
1
1
1
1
1
1
1
1
1
1
1
1
1
1
1
1
1
1
1
1
1
1
1
1
1
1
1
1
1
1
4.20938
9.78278
10.2558
10.3368
10.4051
10.463
10.5205
10.5738
10.622
10.6629
10.698
10.7326
10.7658
10.7972
10.8292
10.8636
10.9008
10.9396
10.9769
11.0077
11.0307
11.0462
11.0632
11.0825
11.1069
11.1322
11.1556
11.1719
11.1769
11.1785
11.1809
11.1906
11.2083
11.2277
11.2423
11.25
11.248
11.2398
11.2294
11.2202
11.2174
11.2222
11.2316
11.241
1
1
1
1
1
1
1
1
1
1
1
1
1
1
1
1
1
1
1
1
1
1
1
1
1
1
1
1
1
1
1
1
1
1
1
1
1
1
1
1
1
1
1
1
1
1
1
1
1
1
1
1
3.31209
9.36367
10.2526
10.3057
10.369
10.4254
10.4849
10.5404
10.5897
10.6337
10.6715
10.7055
10.7364
10.7645
10.7929
10.8241
10.8581
10.894
10.9293
10.9594
10.9808
10.9947
11.011
11.029
11.0523
11.0752
11.0957
11.1085
11.1086
11.1058
11.1043
11.1103
11.126
11.143
11.1551
11.1586
11.1509
11.1377
11.1216
11.1074
11.1007
11.1028
11.1106
11.1197
1
1
1
1
1
1
1
1
1
1
1
1
1
1
1
1
1
1
1
1
1
1
1
1
1
1
1
1
1
1
1
1
1
1
1
1
1
1
1
1
1
1
1
1
1
1
1
1
1
1
1
1
2.3673
8.71773
10.3235
10.3133
10.3691
10.4137
10.464
10.5132
10.5592
10.6029
10.6414
10.675
10.7043
10.7295
10.7541
10.7819
10.813
10.8466
10.8804
10.9097
10.9285
10.941
10.9556
10.9725
10.9946
11.0156
11.0333
11.0431
11.0387
11.0317
11.0246
11.0257
11.0382
11.0511
11.0591
11.0566
11.0435
11.0246
11.0027
10.983
10.97
10.9654
10.9673
10.9718
1
1
1
1
1
1
1
1
1
1
1
1
1
1
1
1
1
1
1
1
1
1
1
1
1
1
1
1
1
1
1
1
1
1
1
1
1
1
1
1
1
1
1
1
1
1
1
1
1
1
1
1
1.5113
7.99616
10.4484
10.3146
10.3335
10.3729
10.4243
10.4773
10.527
10.5708
10.6084
10.6413
10.6699
10.6931
10.7141
10.7382
10.7663
10.7979
10.8299
10.8575
10.8744
10.8857
10.8975
10.9128
10.9328
10.9517
10.9669
10.9741
10.9663
10.9549
10.9424
10.9382
10.9437
10.9511
10.9533
10.9438
10.9238
10.8961
10.8647
10.8356
10.8144
10.8031
10.7999
10.8024
1
1
1
1
1
1
1
1
1
1
1
1
1
1
1
1
1
1
1
1
1
1
1
1
1
1
1
1
1
1
1
1
1
1
1
1
1
1
1
1
1
1
1
1
1
1
1
1
1
1
1
1
1.03376
7.0485
10.3568
10.2509
10.2982
10.3489
10.4049
10.4497
10.4882
10.5273
10.5653
10.6003
10.6309
10.6541
10.6728
10.6933
10.7178
10.7467
10.7765
10.8021
10.818
10.8287
10.8374
10.8506
10.8667
10.8826
10.8951
10.9
10.8903
10.8754
10.8587
10.848
10.8446
10.8438
10.8375
10.8195
10.7896
10.7516
10.7105
10.6722
10.6402
10.6139
10.5947
10.5832
1
1
1
1
1
1
1
1
1
1
1
1
1
1
1
1
1
1
1
1
1
1
1
1
1
1
1
1
1
1
1
1
1
1
1
1
1
1
1
1
1
1
1
1
1
1
1
1
1
1
1
1
1.00014
5.79268
10.0541
10.1709
10.2411
10.3016
10.3599
10.4104
10.4519
10.4879
10.5214
10.5526
10.5814
10.6071
10.6274
10.6468
10.6682
10.6935
10.72
10.7439
10.759
10.7688
10.7763
10.7865
10.798
10.8095
10.8181
10.8201
10.8091
10.7918
10.7721
10.7547
10.7406
10.7288
10.7111
10.6824
10.6413
10.5897
10.5323
10.4743
10.4191
10.3722
10.3364
10.3238
1
1
1
1
1
1
1
1
1
1
1
1
1
1
1
1
1
1
1
1
1
1
1
1
1
1
1
1
1
1
1
1
1
1
1
1
1
1
1
1
1
1
1
1
1
1
1
1
1
1
1
1
0.999999
4.60509
9.79874
10.1123
10.2018
10.2775
10.3329
10.3755
10.4074
10.437
10.4684
10.4984
10.5284
10.5557
10.5765
10.5962
10.616
10.6378
10.661
10.6835
10.6965
10.7059
10.7123
10.7185
10.726
10.7327
10.7364
10.7343
10.7217
10.7023
10.6803
10.6569
10.6322
10.6079
10.5767
10.5339
10.4772
10.4073
10.3294
10.2494
10.1715
10.0947
10.0131
9.94222
1
1
1
1
1
1
1
1
1
1
1
1
1
1
1
1
1
1
1
1
1
1
1
1
1
1
1
1
1
1
1
1
1
1
1
1
1
1
1
1
1
1
1
1
1
1
1
1
1
1
1
1
1
3.42009
9.27273
10.0915
10.189
10.2621
10.3086
10.3409
10.3683
10.3962
10.4249
10.4516
10.4768
10.5025
10.5235
10.5425
10.5602
10.5788
10.5999
10.6211
10.6317
10.6393
10.6433
10.6462
10.65
10.6526
10.6521
10.6448
10.6287
10.6067
10.5819
10.5528
10.518
10.4806
10.434
10.374
10.2984
10.2077
10.1034
9.98655
9.84986
9.68964
9.53123
9.41584
1
1
1
1
1
1
1
1
1
1
1
1
1
1
1
1
1
1
1
1
1
1
1
1
1
1
1
1
1
1
1
1
1
1
1
1
1
1
1
1
1
1
1
1
1
1
1
1
1
1
1
1
1
2.24238
8.54896
10.2304
10.2031
10.2316
10.261
10.2913
10.3225
10.3534
10.3827
10.4093
10.4335
10.457
10.4752
10.4895
10.5029
10.518
10.5368
10.556
10.5652
10.5691
10.5697
10.5691
10.5696
10.5677
10.5634
10.5513
10.5307
10.5044
10.4755
10.4405
10.3971
10.3468
10.2841
10.205
10.1071
9.98941
9.84818
9.67951
9.47836
9.23832
8.97803
8.81083
1
1
1
1
1
1
1
1
1
1
1
1
1
1
1
1
1
1
1
1
1
1
1
1
1
1
1
1
1
1
1
1
1
1
1
1
1
1
1
1
1
1
1
1
1
1
1
1
1
1
1
1
1
1.27766
7.6258
10.3529
10.2246
10.1886
10.2071
10.2437
10.2774
10.3093
10.339
10.3662
10.39
10.4118
10.4282
10.4387
10.4479
10.4592
10.4742
10.4895
10.4977
10.4971
10.4932
10.4883
10.4851
10.479
10.4702
10.4538
10.4289
10.3973
10.3624
10.3205
10.2688
10.2059
10.1269
10.0277
9.90514
9.75659
9.57499
9.35101
9.05663
8.61885
7.78198
5.82641
1
1
1
1
1
1
1
1
1
1
1
1
1
1
1
1
1
1
1
1
1
1
1
1
1
1
1
1
1
1
1
1
1
1
1
1
1
1
1
1
1
1
1
1
1
1
1
1
1
1
1
1
1
1.00876
6.40132
10.0637
10.0621
10.1138
10.1539
10.1963
10.2318
10.264
10.2935
10.3204
10.344
10.3647
10.3788
10.3864
10.3931
10.402
10.4134
10.4244
10.4299
10.4251
10.4165
10.406
10.3975
10.3861
10.3726
10.3524
10.3235
10.2861
10.2434
10.1936
10.1328
10.0575
9.96268
9.84353
9.69578
9.51438
9.28759
8.99097
8.5802
7.93999
6.96915
4.77348
1
1
1
1
1
1
1
1
1
1
1
1
1
1
1
1
1
1
1
1
1
1
1
1
1
1
1
1
1
1
1
1
1
1
1
1
1
1
1
1
1
1
1
1
1
1
1
1
1
1
1
1
1
0.999991
4.87704
9.67926
10.0111
10.0927
10.1294
10.1563
10.1885
10.2193
10.2466
10.2716
10.2944
10.314
10.3265
10.3318
10.336
10.3425
10.351
10.3594
10.3622
10.3547
10.3414
10.325
10.3099
10.2922
10.2734
10.2489
10.2159
10.1723
10.1211
10.0618
9.99071
9.90305
9.79322
9.65521
9.4829
9.26962
8.99848
8.64623
8.14518
7.48282
6.21165
4.36979
1
1
1
1
1
1
1
1
1
1
1
1
1
1
1
1
1
1
1
1
1
1
1
1
1
1
1
1
1
1
1
1
1
1
1
1
1
1
1
1
1
1
1
1
1
1
1
1
1
1
1
1
1
0.999997
3.42269
9.18084
10.0184
10.0667
10.1001
10.1312
10.159
10.1832
10.2044
10.2246
10.2447
10.2623
10.2733
10.2771
10.2792
10.2834
10.2892
10.2948
10.2947
10.285
10.2671
10.2452
10.2228
10.1994
10.1749
10.1446
10.1064
10.0568
9.99704
9.92738
9.84486
9.74446
9.61991
9.46477
9.27002
9.02955
8.72134
8.32799
7.78062
7.02796
5.78269
4.29593
1
1
1
1
1
1
1
1
1
1
1
1
1
1
1
1
1
1
1
1
1
1
1
1
1
1
1
1
1
1
1
1
1
1
1
1
1
1
1
1
1
1
1
1
1
1
1
1
1
1
1
1
1
0.999999
2.07752
8.44228
10.1012
10.0453
10.0609
10.0941
10.1242
10.1487
10.1669
10.1823
10.1977
10.2113
10.2194
10.2212
10.2209
10.2226
10.2259
10.2289
10.2261
10.2143
10.1928
10.1659
10.1371
10.1083
10.078
10.0417
9.99719
9.94125
9.87287
9.79258
9.69787
9.58456
9.44578
9.27562
9.06218
8.79956
8.46588
8.03771
7.47502
6.68213
5.58879
4.42627
1
1
1
1
1
1
1
1
1
1
1
1
1
1
1
1
1
1
1
1
1
1
1
1
1
1
1
1
1
1
1
1
1
1
1
1
1
1
1
1
1
1
1
1
1
1
1
1
1
1
1
1
1
1
1.12525
7.23567
10.151
10.0453
10.0336
10.057
10.085
10.1085
10.1254
10.1388
10.151
10.1613
10.1663
10.1665
10.1639
10.163
10.1632
10.1633
10.1578
10.1436
10.1183
10.0866
10.0521
10.0177
9.98148
9.939
9.8875
9.82497
9.74886
9.65891
9.55221
9.42615
9.27379
9.09023
8.8625
8.58267
8.23319
7.78911
7.21795
6.46099
5.52609
4.56235
1
1
1
1
1
1
1
1
1
1
1
1
1
1
1
1
1
1
1
1
1
1
1
1
1
1
1
1
1
1
1
1
1
1
1
1
1
1
1
1
1
1
1
1
1
1
1
1
1
1
1
1
1
1
1.00149
5.67539
9.71651
9.87467
9.94772
9.99722
10.0306
10.0563
10.0751
10.0896
10.1008
10.1091
10.1119
10.1106
10.1063
10.1024
10.0989
10.0952
10.0868
10.0704
10.0431
10.0082
9.96898
9.92871
9.88597
9.83685
9.77834
9.70908
9.62601
9.52781
9.41028
9.27194
9.10687
8.91135
8.67395
8.38391
8.02639
7.57782
7.02287
6.32746
5.51484
4.69034
1
1
1
1
1
1
1
1
1
1
1
1
1
1
1
1
1
1
1
1
1
1
1
1
1
1
1
1
1
1
1
1
1
1
1
1
1
1
1
1
1
1
1
1
1
1
1
1
1
1
1
1
1
1
0.999989
3.98101
9.30922
9.8757
9.93023
9.97192
9.99524
10.0145
10.0303
10.0424
10.0512
10.0566
10.0572
10.0546
10.0491
10.0421
10.0341
10.0254
10.0132
9.99438
9.96634
9.92947
9.88676
9.84082
9.79123
9.73524
9.66993
9.59407
9.50461
9.39922
9.27294
9.12393
8.94801
8.7421
8.49805
8.20375
7.84669
7.40306
6.87708
6.23983
5.53561
4.82959
1
1
1
1
1
1
1
1
1
1
1
1
1
1
1
1
1
1
1
1
1
1
1
1
1
1
1
1
1
1
1
1
1
1
1
1
1
1
1
1
1
1
1
1
1
1
1
1
1
1
1
1
1
1
0.999998
2.35342
8.54659
9.94542
9.92334
9.93864
9.9572
9.9708
9.98182
9.9918
9.99866
10.0017
10.0004
9.99654
9.98996
9.98006
9.96769
9.9536
9.93693
9.91598
9.88771
9.8503
9.80535
9.7541
9.69765
9.63472
9.56298
9.48112
9.38608
9.27443
9.14119
8.98346
8.79896
8.58503
8.33639
8.0418
7.69442
7.26244
6.76219
6.1883
5.57764
4.9619
1
1
1
1
1
1
1
1
1
1
1
1
1
1
1
1
1
1
1
1
1
1
1
1
1
1
1
1
1
1
1
1
1
1
1
1
1
1
1
1
1
1
1
1
1
1
1
1
1
1
1
1
1
1
1
1.17676
7.36114
10.0322
9.93248
9.90981
9.91476
9.91887
9.92638
9.93595
9.94308
9.94596
9.94399
9.9389
9.93047
9.91759
9.90137
9.88206
9.86068
9.83729
9.80788
9.7697
9.72244
9.6668
9.60475
9.53607
9.45886
9.37165
9.27155
9.15453
9.01588
8.85193
8.66129
8.44181
8.1901
7.89834
7.56205
7.14676
6.68555
6.1666
5.62414
5.06646
1
1
1
1
1
1
1
1
1
1
1
1
1
1
1
1
1
1
1
1
1
1
1
1
1
1
1
1
1
1
1
1
1
1
1
1
1
1
1
1
1
1
1
1
1
1
1
1
1
1
1
1
1
1
1
1.00297
5.68576
9.59558
9.79709
9.85081
9.85098
9.85449
9.86611
9.87919
9.88829
9.89189
9.88945
9.8825
9.87105
9.85504
9.8356
9.8126
9.7873
9.76119
9.72937
9.68904
9.63884
9.5793
9.5124
9.43871
9.35675
9.26503
9.16071
9.03944
8.89672
8.72894
8.53489
8.31277
8.06011
7.77336
7.4435
7.05847
6.63835
6.15383
5.664
5.14944
1
1
1
1
1
1
1
1
1
1
1
1
1
1
1
1
1
1
1
1
1
1
1
1
1
1
1
1
1
1
1
1
1
1
1
1
1
1
1
1
1
1
1
1
1
1
1
1
1
1
1
1
1
1
1
0.999974
3.79305
9.1886
9.80305
9.80518
9.80336
9.8102
9.82158
9.83361
9.84214
9.84533
9.84162
9.83168
9.81556
9.79514
9.77164
9.74539
9.71709
9.68773
9.6526
9.60882
9.55481
9.49174
9.42102
9.34347
9.25769
9.16225
9.05431
8.92967
8.78396
8.61413
8.41909
8.19721
7.94651
7.6652
7.34389
6.99321
6.59751
6.14563
5.70754
5.22972
1
1
1
1
1
1
1
1
1
1
1
1
1
1
1
1
1
1
1
1
1
1
1
1
1
1
1
1
1
1
1
1
1
1
1
1
1
1
1
1
1
1
1
1
1
1
1
1
1
1
1
1
1
1
1
0.999994
2.07467
8.44888
9.82502
9.7423
9.74174
9.76316
9.77624
9.78523
9.79196
9.79466
9.79077
9.77968
9.76072
9.73691
9.70989
9.68073
9.64966
9.61662
9.57755
9.53032
9.47323
9.40726
9.33303
9.25134
9.16126
9.06207
8.95108
8.82423
8.67687
8.50646
8.31217
8.09268
7.8466
7.57065
7.266
6.93692
6.55572
6.15166
5.75494
5.30795
1
1
1
1
1
1
1
1
1
1
1
1
1
1
1
1
1
1
1
1
1
1
1
1
1
1
1
1
1
1
1
1
1
1
1
1
1
1
1
1
1
1
1
1
1
1
1
1
1
1
1
1
1
1
1
0.999999
1.10586
6.97683
9.81081
9.7169
9.71397
9.72215
9.73334
9.73917
9.74306
9.74364
9.73826
9.72586
9.70511
9.67906
9.64918
9.61697
9.58248
9.5451
9.50214
9.45251
9.39395
9.32641
9.24946
9.16369
9.06907
8.96609
8.85233
8.72393
8.57587
8.40602
8.21372
7.99783
7.75814
7.48959
7.2041
6.88151
6.52205
6.16842
5.79503
5.37689
1
1
1
1
1
1
1
1
1
1
1
1
1
1
1
1
1
1
1
1
1
1
1
1
1
1
1
1
1
1
1
1
1
1
1
1
1
1
1
1
1
1
1
1
1
1
1
1
1
1
1
1
1
1
1
1
1.00091
4.97249
9.29514
9.58352
9.66196
9.69372
9.69276
9.6913
9.69161
9.68996
9.6833
9.67011
9.64889
9.62203
9.59059
9.5557
9.51749
9.47545
9.42858
9.37705
9.31807
9.24995
9.17071
9.08084
8.98157
8.87462
8.75816
8.62862
8.48055
8.31229
8.12308
7.91109
7.67927
7.41808
7.14463
6.83354
6.50536
6.18319
5.81832
5.43827
1
1
1
1
1
1
1
1
1
1
1
1
1
1
1
1
1
1
1
1
1
1
1
1
1
1
1
1
1
1
1
1
1
1
1
1
1
1
1
1
1
1
1
1
1
1
1
1
1
1
1
1
1
1
1
1
0.999995
2.86222
8.72915
9.67978
9.66254
9.65635
9.65306
9.64854
9.64296
9.63679
9.62734
9.6126
9.59099
9.56392
9.53198
9.49535
9.45416
9.40806
9.35752
9.30389
9.24442
9.17589
9.09486
9.00205
8.8995
8.7892
8.6702
8.53955
8.39166
8.22537
8.0403
7.83308
7.60839
7.35265
7.0942
6.80081
6.49376
6.18353
5.83492
5.50247
1
1
1
1
1
1
1
1
1
1
1
1
1
1
1
1
1
1
1
1
1
1
1
1
1
1
1
1
1
1
1
1
1
1
1
1
1
1
1
1
1
1
1
1
1
1
1
1
1
1
1
1
1
1
1
1
0.999999
1.29744
7.55805
9.7761
9.64199
9.60582
9.60269
9.59837
9.5908
9.58259
9.57165
9.55659
9.53602
9.50946
9.47705
9.43851
9.39444
9.34494
9.29129
9.23538
9.17453
9.10448
9.02121
8.92612
8.82155
8.70898
8.58787
8.45589
8.30845
8.14433
7.96395
7.76201
7.54211
7.29794
7.05375
6.76692
6.47765
6.18272
5.86564
5.56043
1
1
1
1
1
1
1
1
1
1
1
1
1
1
1
1
1
1
1
1
1
1
1
1
1
1
1
1
1
1
1
1
1
1
1
1
1
1
1
1
1
1
1
1
1
1
1
1
1
1
1
1
1
1
1
1
1
1.00814
5.68273
9.31383
9.47986
9.54497
9.56188
9.55112
9.54065
9.53075
9.5184
9.50244
9.48212
9.45559
9.4224
9.38244
9.33651
9.28496
9.22912
9.17083
9.10749
9.03465
8.94913
8.8529
8.74772
8.63407
8.51137
8.3778
8.23053
8.06886
7.89346
7.69664
7.48387
7.25613
7.01344
6.73653
6.47284
6.19284
5.89693
5.59959
1
1
1
1
1
1
1
1
1
1
1
1
1
1
1
1
1
1
1
1
1
1
1
1
1
1
1
1
1
1
1
1
1
1
1
1
1
1
1
1
1
1
1
1
1
1
1
1
1
1
1
1
1
1
1
1
1
0.999949
3.35802
8.82229
9.53596
9.52737
9.51509
9.50829
9.49896
9.4858
9.47004
9.45143
9.42996
9.40348
9.36944
9.32837
9.28068
9.22724
9.16936
9.1084
9.04193
8.96598
8.87872
8.78203
8.6766
8.56235
8.43855
8.30391
8.15702
7.99778
7.82694
7.6358
7.43275
7.21519
6.97359
6.71918
6.47551
6.19768
5.91175
5.62959
1
1
1
1
1
1
1
1
1
1
1
1
1
1
1
1
1
1
1
1
1
1
1
1
1
1
1
1
1
1
1
1
1
1
1
1
1
1
1
1
1
1
1
1
1
1
1
1
1
1
1
1
1
1
1
1
1
0.999988
1.50254
7.81078
9.6496
9.50683
9.46451
9.45508
9.44788
9.43487
9.4188
9.39896
9.37577
9.34836
9.31346
9.27236
9.22438
9.17019
9.11046
9.04616
8.97597
8.89724
8.80943
8.7135
8.60856
8.49429
8.37011
8.23504
8.08902
7.93144
7.76509
7.57965
7.38423
7.17388
6.94448
6.71258
6.47063
6.19371
5.93068
5.67271
1
1
1
1
1
1
1
1
1
1
1
1
1
1
1
1
1
1
1
1
1
1
1
1
1
1
1
1
1
1
1
1
1
1
1
1
1
1
1
1
1
1
1
1
1
1
1
1
1
1
1
1
1
1
1
1
1
0.999998
1.02282
5.94449
9.23833
9.35027
9.40516
9.41669
9.40282
9.38644
9.36881
9.34704
9.32136
9.29167
9.25517
9.21379
9.16635
9.11214
9.05096
8.98345
8.90954
8.82869
8.7411
8.64624
8.54222
8.42848
8.30467
8.16998
8.02567
7.86935
7.70716
7.525
7.33734
7.13848
6.92222
6.69636
6.45506
6.20239
5.9616
5.71704
1
1
1
1
1
1
1
1
1
1
1
1
1
1
1
1
1
1
1
1
1
1
1
1
1
1
1
1
1
1
1
1
1
1
1
1
1
1
1
1
1
1
1
1
1
1
1
1
1
1
1
1
1
1
1
1
1
1
0.999968
3.43843
8.74077
9.40612
9.39548
9.37633
9.36456
9.34894
9.32669
9.30002
9.26991
9.2363
9.19719
9.15488
9.10796
9.05399
8.99211
8.92185
8.84462
8.76187
8.67405
8.58015
8.47727
8.36502
8.243
8.10997
7.96808
7.81311
7.65281
7.47479
7.29804
7.10668
6.8946
6.67559
6.45375
6.22499
5.98963
5.74708
1
1
1
1
1
1
1
1
1
1
1
1
1
1
1
1
1
1
1
1
1
1
1
1
1
1
1
1
1
1
1
1
1
1
1
1
1
1
1
1
1
1
1
1
1
1
1
1
1
1
1
1
1
1
1
1
1
1
0.999989
1.46424
7.71995
9.52598
9.3739
9.33045
9.31403
9.30155
9.27753
9.24941
9.21748
9.18153
9.14041
9.09641
9.04906
8.99476
8.93222
8.86076
8.78195
8.69783
8.6095
8.5155
8.41296
8.30249
8.18339
8.0537
7.9147
7.76174
7.60242
7.43194
7.2623
7.06976
6.86656
6.66644
6.46176
6.2354
5.99797
5.76673
1
1
1
1
1
1
1
1
1
1
1
1
1
1
1
1
1
1
1
1
1
1
1
1
1
1
1
1
1
1
1
1
1
1
1
1
1
1
1
1
1
1
1
1
1
1
1
1
1
1
1
1
1
1
1
1
1
1
0.999998
1.01894
5.75074
9.08194
9.1947
9.25306
9.27428
9.25825
9.2321
9.20356
9.16988
9.13108
9.08773
9.04174
8.99342
8.93885
8.87554
8.80345
8.72353
8.63824
8.54849
8.45339
8.35111
8.2427
8.12673
8.0009
7.86432
7.71434
7.55757
7.39529
7.22477
7.03675
6.85018
6.66354
6.45952
6.23056
6.00828
5.79653
1
1
1
1
1
1
1
1
1
1
1
1
1
1
1
1
1
1
1
1
1
1
1
1
1
1
1
1
1
1
1
1
1
1
1
1
1
1
1
1
1
1
1
1
1
1
1
1
1
1
1
1
1
1
1
1
1
1
1
0.999954
3.13366
8.52934
9.26405
9.26001
9.25206
9.21969
9.19306
9.16413
9.12771
9.08422
9.0373
8.98831
8.93843
8.88403
8.82069
8.74897
8.66918
8.58341
8.49176
8.39552
8.29316
8.18588
8.0726
7.94923
7.81521
7.66915
7.51723
7.35992
7.18945
7.01363
6.8388
6.65147
6.44374
6.23092
6.03279
5.82922
1
1
1
1
1
1
1
1
1
1
1
1
1
1
1
1
1
1
1
1
1
1
1
1
1
1
1
1
1
1
1
1
1
1
1
1
1
1
1
1
1
1
1
1
1
1
1
1
1
1
1
1
1
1
1
1
1
1
1
0.999986
1.31547
7.27473
9.36441
9.24974
9.18884
9.15947
9.13815
9.11307
9.0774
9.03295
8.98445
8.93439
8.88412
8.83065
8.76868
8.69826
8.61982
8.53425
8.44145
8.34414
8.24139
8.13459
8.02073
7.89988
7.76925
7.62722
7.48034
7.32536
7.16064
6.99541
6.82204
6.6336
6.43494
6.24533
6.05565
5.8534
1
1
1
1
1
1
1
1
1
1
1
1
1
1
1
1
1
1
1
1
1
1
1
1
1
1
1
1
1
1
1
1
1
1
1
1
1
1
1
1
1
1
1
1
1
1
1
1
1
1
1
1
1
1
1
1
1
1
1
0.999998
1.00849
5.02978
8.90387
9.10281
9.11926
9.11044
9.09658
9.07063
9.03206
8.98643
8.9372
8.88618
8.83459
8.78046
8.71897
8.64957
8.57309
8.48851
8.39599
8.29826
8.19561
8.08835
7.97419
7.85327
7.72572
7.58859
7.44617
7.29433
7.13752
6.97533
6.80026
6.61775
6.43591
6.25931
6.0675
5.86799
1
1
1
1
1
1
1
1
1
1
1
1
1
1
1
1
1
1
1
1
1
1
1
1
1
1
1
1
1
1
1
1
1
1
1
1
1
1
1
1
1
1
1
1
1
1
1
1
1
1
1
1
1
1
1
1
1
1
1
1
0.999965
2.39878
8.3098
9.18529
9.11111
9.08045
9.05921
9.02379
8.9803
8.93528
8.88823
8.83966
8.78821
8.73285
8.671
8.60206
8.52701
8.44467
8.35401
8.25704
8.15499
8.04698
7.9322
7.81016
7.68433
7.55272
7.41453
7.2675
7.11545
6.95221
6.78071
6.60843
6.43883
6.26583
6.07424
5.88613
1
1
1
1
1
1
1
1
1
1
1
1
1
1
1
1
1
1
1
1
1
1
1
1
1
1
1
1
1
1
1
1
1
1
1
1
1
1
1
1
1
1
1
1
1
1
1
1
1
1
1
1
1
1
1
1
1
1
1
1
0.999992
1.14285
6.62208
9.07153
9.03286
9.03569
9.00795
8.96482
8.91934
8.87903
8.83865
8.7951
8.74499
8.68798
8.62421
8.55462
8.48011
8.40063
8.31245
8.21723
8.11617
8.00833
7.8933
7.77121
7.6464
7.51944
7.3859
7.24418
7.09298
6.9293
6.76571
6.60259
6.43782
6.26499
6.08111
5.90778
1
1
1
1
1
1
1
1
1
1
1
1
1
1
1
1
1
1
1
1
1
1
1
1
1
1
1
1
1
1
1
1
1
1
1
1
1
1
1
1
1
1
1
1
1
1
1
1
1
1
1
1
1
1
1
1
1
1
1
1
0.999999
1.00143
3.85494
8.53002
8.99033
9.00543
8.97689
8.93248
8.88519
8.84308
8.8032
8.7592
8.70725
8.64693
8.57995
8.50858
8.43337
8.35556
8.27027
8.17781
8.07829
7.97147
7.85693
7.73542
7.6112
7.48662
7.35711
7.21944
7.06891
6.90952
6.75467
6.5968
6.43469
6.26456
6.09244
5.92821
1
1
1
1
1
1
1
1
1
1
1
1
1
1
1
1
1
1
1
1
1
1
1
1
1
1
1
1
1
1
1
1
1
1
1
1
1
1
1
1
1
1
1
1
1
1
1
1
1
1
1
1
1
1
1
1
1
1
1
1
1
0.999995
1.49752
7.52772
9.15028
9.01589
8.94489
8.89574
8.85037
8.80659
8.76391
8.71798
8.66479
8.60307
8.53498
8.4628
8.38728
8.31034
8.22789
8.13855
8.04097
7.936
7.82338
7.70376
7.5808
7.45711
7.33016
7.19493
7.04655
6.89533
6.7469
6.5907
6.43079
6.26671
6.10505
5.94336
1
1
1
1
1
1
1
1
1
1
1
1
1
1
1
1
1
1
1
1
1
1
1
1
1
1
1
1
1
1
1
1
1
1
1
1
1
1
1
1
1
1
1
1
1
1
1
1
1
1
1
1
1
1
1
1
1
1
1
1
1
0.999999
1.02094
5.31881
8.72047
8.85929
8.87363
8.8576
8.82521
8.78005
8.73047
8.67916
8.62368
8.56165
8.49362
8.4207
8.34413
8.26623
8.18481
8.0975
8.00228
7.89981
7.79016
7.67374
7.55315
7.43015
7.30394
7.16967
7.02536
6.8824
6.73795
6.58424
6.42801
6.2711
6.11569
5.95415
1
1
1
1
1
1
1
1
1
1
1
1
1
1
1
1
1
1
1
1
1
1
1
1
1
1
1
1
1
1
1
1
1
1
1
1
1
1
1
1
1
1
1
1
1
1
1
1
1
1
1
1
1
1
1
1
1
1
1
1
1
1
0.999962
2.43909
8.10965
8.95656
8.88106
8.83435
8.80006
8.75166
8.69512
8.63721
8.57957
8.51907
8.45285
8.3807
8.30427
8.22594
8.14464
8.05802
7.96447
7.86416
7.75761
7.64542
7.52873
7.40747
7.28141
7.14768
7.00783
6.8705
6.72863
6.57882
6.42716
6.27557
6.12242
5.96246
1
1
1
1
1
1
1
1
1
1
1
1
1
1
1
1
1
1
1
1
1
1
1
1
1
1
1
1
1
1
1
1
1
1
1
1
1
1
1
1
1
1
1
1
1
1
1
1
1
1
1
1
1
1
1
1
1
1
1
1
1
1
0.99999
1.1466
6.38535
8.8641
8.81583
8.79343
8.75968
8.71011
8.65316
8.59416
8.53571
8.47643
8.41149
8.3407
8.2658
8.18767
8.10579
8.01865
7.9256
7.8266
7.72237
7.61433
7.5023
7.38414
7.25958
7.12762
6.99212
6.85789
6.71858
6.57351
6.42657
6.2789
6.12789
5.97257
1
1
1
1
1
1
1
1
1
1
1
1
1
1
1
1
1
1
1
1
1
1
1
1
1
1
1
1
1
1
1
1
1
1
1
1
1
1
1
1
1
1
1
1
1
1
1
1
1
1
1
1
1
1
1
1
1
1
1
1
1
1
0.999998
1.0015
3.46141
8.23819
8.75588
8.75553
8.72981
8.67969
8.62403
8.56559
8.50381
8.4408
8.37538
8.30658
8.2334
8.15561
8.07294
7.98464
7.89103