/*--------------------------------*- C++ -*----------------------------------*\
  =========                 |
  \\      /  F ield         | OpenFOAM: The Open Source CFD Toolbox
   \\    /   O peration     | Website:  https://openfoam.org
    \\  /    A nd           | Version:  7
     \\/     M anipulation  |
\*---------------------------------------------------------------------------*/
FoamFile
{
    version     2.0;
    format      ascii;
    class       volScalarField;
    location    "1.7";
    object      T;
}
// * * * * * * * * * * * * * * * * * * * * * * * * * * * * * * * * * * * * * //

dimensions      [0 0 0 1 0 0 0];

internalField   nonuniform List<scalar> 
64512
(
1
1
1
1
1
1
1
1
1
1
1
1
1
1
1
1
1
1
1
1
1
1
1
1
1
1
1
1
1
1
1
1
1
1
1
1
1
1
1
1
1
1
1
1
1
1
1
1
1
1
1.4466
2.54843
2.71486
2.71349
2.71688
2.71875
2.72102
2.72343
2.72671
2.73106
2.73626
2.74196
2.74768
2.75288
2.75722
2.76075
2.76379
2.76676
2.77042
2.77569
2.78301
2.79161
2.79932
2.80371
2.80459
2.80365
2.80159
2.79988
2.79963
2.80135
2.80567
2.81145
2.8171
2.8215
2.82412
2.82556
2.8268
2.82872
2.83194
2.83667
2.84348
2.85435
2.87019
2.88757
2.89988
2.90425
1
1
1
1
1
1
1
1
1
1
1
1
1
1
1
1
1
1
1
1
1
1
1
1
1
1
1
1
1
1
1
1
1
1
1
1
1
1
1
1
1
1
1
1
1
1
1
1
1
1
1.44075
2.5451
2.71472
2.71364
2.7164
2.71856
2.72096
2.72331
2.72648
2.73085
2.73619
2.74204
2.74782
2.75301
2.7573
2.76075
2.76372
2.76667
2.77035
2.77563
2.78291
2.79142
2.79901
2.80332
2.80419
2.80326
2.80128
2.79967
2.79948
2.80121
2.80551
2.81128
2.81694
2.82134
2.82399
2.82548
2.82675
2.82868
2.83189
2.83659
2.84339
2.85421
2.86999
2.88731
2.8996
2.90391
1
1
1
1
1
1
1
1
1
1
1
1
1
1
1
1
1
1
1
1
1
1
1
1
1
1
1
1
1
1
1
1
1
1
1
1
1
1
1
1
1
1
1
1
1
1
1
1
1
1
1.42452
2.53701
2.71407
2.71291
2.71568
2.71806
2.72054
2.72281
2.72596
2.73046
2.73602
2.74208
2.74799
2.75325
2.75753
2.76092
2.76381
2.76668
2.77031
2.77555
2.78277
2.79116
2.79859
2.80277
2.80354
2.80259
2.80071
2.79928
2.79924
2.80103
2.80532
2.81102
2.81664
2.82104
2.82377
2.82534
2.82668
2.82863
2.83181
2.83647
2.84321
2.85399
2.8697
2.88698
2.89929
2.90359
1
1
1
1
1
1
1
1
1
1
1
1
1
1
1
1
1
1
1
1
1
1
1
1
1
1
1
1
1
1
1
1
1
1
1
1
1
1
1
1
1
1
1
1
1
1
1
1
1
1
1.39759
2.52419
2.71277
2.71215
2.71523
2.71772
2.71987
2.72202
2.72528
2.73005
2.73588
2.74213
2.74817
2.75353
2.75786
2.76123
2.76404
2.76679
2.77028
2.7754
2.78248
2.7907
2.79795
2.80199
2.80265
2.80167
2.79991
2.79868
2.79883
2.80076
2.80504
2.81067
2.8162
2.82058
2.8234
2.8251
2.82653
2.82852
2.83167
2.83629
2.843
2.85374
2.86939
2.88657
2.89883
2.90305
1
1
1
1
1
1
1
1
1
1
1
1
1
1
1
1
1
1
1
1
1
1
1
1
1
1
1
1
1
1
1
1
1
1
1
1
1
1
1
1
1
1
1
1
1
1
1
1
1
1
1.35803
2.50624
2.71171
2.71152
2.71442
2.71657
2.71845
2.72081
2.72465
2.72987
2.73596
2.7423
2.7484
2.75386
2.7583
2.76172
2.76446
2.76704
2.77028
2.77515
2.78202
2.79005
2.79711
2.80104
2.80162
2.8006
2.79895
2.79793
2.7983
2.80043
2.80471
2.81021
2.81561
2.81994
2.82285
2.82471
2.82627
2.8283
2.83145
2.83603
2.84268
2.85343
2.86904
2.88612
2.89826
2.90237
1
1
1
1
1
1
1
1
1
1
1
1
1
1
1
1
1
1
1
1
1
1
1
1
1
1
1
1
1
1
1
1
1
1
1
1
1
1
1
1
1
1
1
1
1
1
1
1
1
1
1.31064
2.48488
2.71162
2.71103
2.71312
2.71456
2.71649
2.71961
2.72417
2.72982
2.73607
2.74241
2.74853
2.75414
2.75875
2.76226
2.76496
2.76734
2.77026
2.77483
2.78143
2.78924
2.79608
2.79989
2.8004
2.79934
2.79778
2.79699
2.79758
2.79992
2.80422
2.80958
2.81481
2.81906
2.82206
2.82412
2.82584
2.82792
2.83109
2.83563
2.84223
2.85301
2.86862
2.88558
2.89757
2.90155
1
1
1
1
1
1
1
1
1
1
1
1
1
1
1
1
1
1
1
1
1
1
1
1
1
1
1
1
1
1
1
1
1
1
1
1
1
1
1
1
1
1
1
1
1
1
1
1
1
1
1.26088
2.46099
2.71091
2.71023
2.71099
2.71252
2.71511
2.71891
2.72389
2.7297
2.73594
2.74229
2.74852
2.75432
2.75912
2.76276
2.76538
2.76751
2.77011
2.77436
2.7807
2.78827
2.79485
2.7985
2.79892
2.79784
2.79642
2.79588
2.7967
2.79924
2.80357
2.80881
2.81385
2.81801
2.82109
2.82333
2.82522
2.82738
2.83059
2.83508
2.84157
2.8524
2.86801
2.88488
2.89672
2.9006
1
1
1
1
1
1
1
1
1
1
1
1
1
1
1
1
1
1
1
1
1
1
1
1
1
1
1
1
1
1
1
1
1
1
1
1
1
1
1
1
1
1
1
1
1
1
1
1
1
1
1.2077
2.43045
2.70781
2.70756
2.70919
2.71158
2.71494
2.71916
2.72407
2.72953
2.73547
2.74173
2.7481
2.75412
2.75915
2.76295
2.76557
2.76752
2.76984
2.7738
2.77986
2.78714
2.7934
2.79681
2.79712
2.79605
2.79485
2.79461
2.79564
2.79837
2.80274
2.80786
2.81273
2.81677
2.81989
2.82231
2.82438
2.82662
2.82989
2.8343
2.84065
2.8515
2.86715
2.884
2.89574
2.89958
1
1
1
1
1
1
1
1
1
1
1
1
1
1
1
1
1
1
1
1
1
1
1
1
1
1
1
1
1
1
1
1
1
1
1
1
1
1
1
1
1
1
1
1
1
1
1
1
1
1
1.14499
2.38622
2.70011
2.70504
2.70881
2.71261
2.71657
2.72068
2.72493
2.72944
2.73451
2.74035
2.74683
2.75331
2.75884
2.76293
2.76556
2.76736
2.76942
2.7731
2.77884
2.78575
2.79163
2.79475
2.79497
2.79399
2.79307
2.79315
2.79442
2.79731
2.80171
2.80673
2.81144
2.81538
2.81852
2.82108
2.82331
2.82566
2.82896
2.83325
2.83948
2.85028
2.86598
2.88288
2.89463
2.8985
1
1
1
1
1
1
1
1
1
1
1
1
1
1
1
1
1
1
1
1
1
1
1
1
1
1
1
1
1
1
1
1
1
1
1
1
1
1
1
1
1
1
1
1
1
1
1
1
1
1
1.05801
2.33016
2.69578
2.70494
2.7108
2.71549
2.71934
2.72271
2.72596
2.7294
2.73349
2.73864
2.74492
2.75171
2.75783
2.76244
2.76529
2.76706
2.76898
2.7724
2.77775
2.78416
2.78955
2.79234
2.79252
2.79168
2.79107
2.79141
2.79294
2.79598
2.80043
2.80542
2.81002
2.81387
2.817
2.81965
2.82201
2.82449
2.82775
2.83189
2.83802
2.84876
2.8645
2.88153
2.8934
2.89737
1
1
1
1
1
1
1
1
1
1
1
1
1
1
1
1
1
1
1
1
1
1
1
1
1
1
1
1
1
1
1
1
1
1
1
1
1
1
1
1
1
1
1
1
1
1
1
1
1
1
1.00198
2.27316
2.69224
2.70508
2.71231
2.718
2.72209
2.7252
2.72767
2.72994
2.73268
2.73663
2.7423
2.74917
2.75588
2.76124
2.76464
2.76662
2.76855
2.77173
2.77655
2.7823
2.78712
2.78959
2.78983
2.7892
2.78888
2.78943
2.79117
2.79436
2.79892
2.80394
2.80848
2.81226
2.81533
2.81801
2.82044
2.82302
2.82625
2.83023
2.83627
2.84695
2.86276
2.87998
2.89204
2.89615
1
1
1
1
1
1
1
1
1
1
1
1
1
1
1
1
1
1
1
1
1
1
1
1
1
1
1
1
1
1
1
1
1
1
1
1
1
1
1
1
1
1
1
1
1
1
1
1
1
1
1.00001
2.20376
2.68773
2.70621
2.71321
2.7199
2.72447
2.72753
2.72941
2.73066
2.73214
2.73478
2.73949
2.74597
2.75298
2.7591
2.76332
2.76585
2.76803
2.77105
2.77528
2.78023
2.7844
2.78662
2.787
2.78658
2.78651
2.78718
2.78904
2.79241
2.79717
2.8023
2.80684
2.81057
2.81356
2.81618
2.81861
2.82123
2.82439
2.82825
2.83422
2.84486
2.86075
2.87819
2.8905
2.89476
1
1
1
1
1
1
1
1
1
1
1
1
1
1
1
1
1
1
1
1
1
1
1
1
1
1
1
1
1
1
1
1
1
1
1
1
1
1
1
1
1
1
1
1
1
1
1
1
1
1
1
2.12423
2.68086
2.70517
2.71241
2.72021
2.72544
2.72893
2.73084
2.73156
2.73209
2.73349
2.7369
2.74248
2.74935
2.75607
2.76127
2.76463
2.76724
2.77011
2.77365
2.77773
2.78131
2.78345
2.78413
2.78394
2.78404
2.78475
2.78665
2.79018
2.79518
2.80048
2.80509
2.80877
2.81165
2.81414
2.81646
2.81903
2.82213
2.82592
2.83187
2.8425
2.8585
2.8762
2.88881
2.89322
1
1
1
1
1
1
1
1
1
1
1
1
1
1
1
1
1
1
1
1
1
1
1
1
1
1
1
1
1
1
1
1
1
1
1
1
1
1
1
1
1
1
1
1
1
1
1
1
1
1
1
2.03382
2.66928
2.7009
2.70968
2.71916
2.72511
2.72915
2.73135
2.73205
2.73222
2.73289
2.73502
2.73923
2.74534
2.75222
2.75827
2.76264
2.76582
2.76862
2.77159
2.77494
2.77807
2.7803
2.78128
2.7813
2.78149
2.78214
2.78402
2.78769
2.79293
2.79843
2.80314
2.80681
2.80956
2.81189
2.81402
2.81645
2.81947
2.82326
2.82923
2.8399
2.85602
2.87397
2.88687
2.89142
1
1
1
1
1
1
1
1
1
1
1
1
1
1
1
1
1
1
1
1
1
1
1
1
1
1
1
1
1
1
1
1
1
1
1
1
1
1
1
1
1
1
1
1
1
1
1
1
1
1
1
1.93085
2.65411
2.69401
2.70476
2.7159
2.72322
2.72841
2.73121
2.73206
2.73198
2.73205
2.73304
2.73588
2.74101
2.74772
2.75441
2.75975
2.76355
2.76639
2.769
2.77188
2.77479
2.77716
2.77838
2.77859
2.77888
2.77951
2.78141
2.78519
2.79058
2.79618
2.80096
2.80461
2.80724
2.80936
2.81126
2.81349
2.81642
2.82023
2.82628
2.83702
2.85329
2.87148
2.88463
2.88929
1
1
1
1
1
1
1
1
1
1
1
1
1
1
1
1
1
1
1
1
1
1
1
1
1
1
1
1
1
1
1
1
1
1
1
1
1
1
1
1
1
1
1
1
1
1
1
1
1
1
1
1.81479
2.63409
2.68829
2.69944
2.71075
2.71891
2.72535
2.72946
2.7313
2.73129
2.73106
2.73135
2.733
2.73691
2.74294
2.74973
2.75571
2.76014
2.76327
2.76587
2.76863
2.77152
2.77402
2.77541
2.77583
2.77624
2.77695
2.77888
2.78271
2.7881
2.79367
2.79846
2.8021
2.80465
2.80662
2.80829
2.81029
2.81308
2.81689
2.823
2.83383
2.85026
2.86867
2.88203
2.88676
1
1
1
1
1
1
1
1
1
1
1
1
1
1
1
1
1
1
1
1
1
1
1
1
1
1
1
1
1
1
1
1
1
1
1
1
1
1
1
1
1
1
1
1
1
1
1
1
1
1
1
1.68737
2.60476
2.68533
2.69452
2.70407
2.71222
2.71957
2.72498
2.72823
2.72926
2.72927
2.72942
2.73043
2.7332
2.73816
2.74447
2.75066
2.75566
2.75935
2.76228
2.76521
2.76817
2.77074
2.77222
2.77283
2.77339
2.7743
2.77637
2.78032
2.7857
2.79112
2.79577
2.79927
2.80165
2.80344
2.80491
2.80672
2.80939
2.81317
2.81935
2.83027
2.84685
2.86549
2.87905
2.88387
1
1
1
1
1
1
1
1
1
1
1
1
1
1
1
1
1
1
1
1
1
1
1
1
1
1
1
1
1
1
1
1
1
1
1
1
1
1
1
1
1
1
1
1
1
1
1
1
1
1
1
1.54118
2.55832
2.68533
2.69092
2.69807
2.70512
2.71231
2.71849
2.72298
2.72565
2.72677
2.72736
2.72827
2.73018
2.73381
2.73906
2.74492
2.7503
2.75471
2.7583
2.7616
2.76465
2.76723
2.76881
2.76967
2.77045
2.7716
2.77385
2.77788
2.78312
2.78832
2.79267
2.79602
2.79824
2.7999
2.80127
2.80298
2.80552
2.80918
2.81535
2.8263
2.84298
2.86182
2.8756
2.88054
1
1
1
1
1
1
1
1
1
1
1
1
1
1
1
1
1
1
1
1
1
1
1
1
1
1
1
1
1
1
1
1
1
1
1
1
1
1
1
1
1
1
1
1
1
1
1
1
1
1
1
1.37166
2.49012
2.68615
2.68783
2.69299
2.69879
2.70501
2.71089
2.71618
2.72038
2.72315
2.72489
2.72628
2.72779
2.7302
2.73403
2.73905
2.7445
2.74965
2.75412
2.75802
2.76127
2.76382
2.76538
2.76631
2.76726
2.76862
2.77112
2.77529
2.78041
2.78542
2.78942
2.79259
2.79456
2.79604
2.79732
2.79898
2.80137
2.80479
2.81089
2.8218
2.83854
2.85761
2.87165
2.87675
1
1
1
1
1
1
1
1
1
1
1
1
1
1
1
1
1
1
1
1
1
1
1
1
1
1
1
1
1
1
1
1
1
1
1
1
1
1
1
1
1
1
1
1
1
1
1
1
1
1
1
1.19338
2.41041
2.68776
2.68669
2.69041
2.69524
2.70017
2.70497
2.71003
2.71497
2.71924
2.72251
2.72477
2.7262
2.72769
2.73011
2.73397
2.73907
2.74466
2.74994
2.75448
2.75804
2.76064
2.7622
2.76317
2.76415
2.76557
2.76819
2.77242
2.7774
2.78221
2.78595
2.78884
2.79057
2.79184
2.79302
2.79469
2.79694
2.80009
2.806
2.81676
2.83347
2.85272
2.86703
2.87232
1
1
1
1
1
1
1
1
1
1
1
1
1
1
1
1
1
1
1
1
1
1
1
1
1
1
1
1
1
1
1
1
1
1
1
1
1
1
1
1
1
1
1
1
1
1
1
1
1
1
1
1.04111
2.3346
2.68602
2.68536
2.68809
2.69209
2.69624
2.7006
2.70532
2.71043
2.71554
2.7199
2.72296
2.72463
2.72577
2.72734
2.73016
2.73457
2.74009
2.74583
2.75096
2.75499
2.75779
2.75937
2.76022
2.76105
2.76232
2.76488
2.76904
2.77389
2.77859
2.78215
2.78475
2.78627
2.78733
2.78839
2.79
2.79207
2.79495
2.80058
2.81107
2.82769
2.84712
2.86175
2.86728
1
1
1
1
1
1
1
1
1
1
1
1
1
1
1
1
1
1
1
1
1
1
1
1
1
1
1
1
1
1
1
1
1
1
1
1
1
1
1
1
1
1
1
1
1
1
1
1
1
1
1
1.00077
2.23651
2.68812
2.68812
2.69002
2.69349
2.69695
2.70083
2.70527
2.71036
2.71551
2.71984
2.72286
2.72435
2.72505
2.72591
2.72776
2.73122
2.73615
2.74185
2.74738
2.75197
2.7551
2.75679
2.7575
2.75807
2.75904
2.76133
2.76526
2.76991
2.77451
2.77792
2.78025
2.7816
2.78249
2.78343
2.78488
2.78671
2.78935
2.79464
2.80475
2.82115
2.84068
2.85558
2.86134
1
1
1
1
1
1
1
1
1
1
1
1
1
1
1
1
1
1
1
1
1
1
1
1
1
1
1
1
1
1
1
1
1
1
1
1
1
1
1
1
1
1
1
1
1
1
1
1
1
1
1
1
2.1095
2.68049
2.68803
2.68966
2.69276
2.6962
2.70024
2.70479
2.70988
2.71494
2.71914
2.72212
2.72357
2.72406
2.72453
2.72575
2.72839
2.73265
2.73816
2.744
2.74912
2.75258
2.75435
2.75484
2.75513
2.75573
2.7576
2.76113
2.76546
2.76991
2.77318
2.77526
2.7765
2.77728
2.77808
2.77927
2.78073
2.78306
2.78795
2.79763
2.81375
2.83334
2.84854
2.85454
1
1
1
1
1
1
1
1
1
1
1
1
1
1
1
1
1
1
1
1
1
1
1
1
1
1
1
1
1
1
1
1
1
1
1
1
1
1
1
1
1
1
1
1
1
1
1
1
1
1
1
1
1.95489
2.65433
2.68553
2.68759
2.69092
2.69476
2.69936
2.70443
2.7097
2.71459
2.71854
2.72133
2.72266
2.72293
2.72307
2.72374
2.72564
2.72925
2.73452
2.74064
2.74625
2.74999
2.75184
2.75209
2.75217
2.75243
2.75382
2.75683
2.76069
2.7649
2.76795
2.76977
2.77092
2.7716
2.77227
2.77314
2.77414
2.77611
2.78056
2.78973
2.80545
2.82494
2.8403
2.84641
1
1
1
1
1
1
1
1
1
1
1
1
1
1
1
1
1
1
1
1
1
1
1
1
1
1
1
1
1
1
1
1
1
1
1
1
1
1
1
1
1
1
1
1
1
1
1
1
1
1
1
1
1.78204
2.60462
2.67688
2.67901
2.68357
2.68895
2.69518
2.70146
2.70736
2.7126
2.7168
2.71971
2.72109
2.72123
2.72114
2.72141
2.72274
2.72583
2.73096
2.73738
2.74332
2.74729
2.74917
2.74924
2.74913
2.74906
2.74995
2.75236
2.7556
2.75948
2.76226
2.76376
2.76484
2.76537
2.76592
2.76642
2.76678
2.76821
2.77206
2.78064
2.7959
2.81529
2.83082
2.83708
1
1
1
1
1
1
1
1
1
1
1
1
1
1
1
1
1
1
1
1
1
1
1
1
1
1
1
1
1
1
1
1
1
1
1
1
1
1
1
1
1
1
1
1
1
1
1
1
1
1
1
1
1.53693
2.51164
2.66508
2.66686
2.67338
2.68017
2.68765
2.6948
2.70131
2.70713
2.71196
2.71555
2.71764
2.71822
2.71814
2.71827
2.71926
2.72199
2.72704
2.73375
2.7399
2.74416
2.74607
2.74609
2.74575
2.74535
2.74586
2.74766
2.75022
2.75372
2.75615
2.75732
2.75824
2.75859
2.75883
2.75881
2.75869
2.75952
2.76267
2.77054
2.78514
2.80413
2.81955
2.82566
1
1
1
1
1
1
1
1
1
1
1
1
1
1
1
1
1
1
1
1
1
1
1
1
1
1
1
1
1
1
1
1
1
1
1
1
1
1
1
1
1
1
1
1
1
1
1
1
1
1
1
1
1.22956
2.40316
2.66062
2.65561
2.66073
2.6686
2.67733
2.6854
2.69248
2.69861
2.70392
2.70843
2.71174
2.71335
2.71376
2.71402
2.71491
2.71742
2.72236
2.72919
2.73563
2.7403
2.74229
2.74243
2.7419
2.74117
2.74136
2.74255
2.74441
2.74741
2.7496
2.75054
2.75101
2.75113
2.75092
2.75024
2.74966
2.74978
2.75183
2.75856
2.77228
2.79089
2.8063
2.81249
1
1
1
1
1
1
1
1
1
1
1
1
1
1
1
1
1
1
1
1
1
1
1
1
1
1
1
1
1
1
1
1
1
1
1
1
1
1
1
1
1
1
1
1
1
1
1
1
1
1
1
1
1.01414
2.3198
2.66145
2.6536
2.65792
2.66399
2.67107
2.67731
2.68302
2.68859
2.69403
2.69929
2.70379
2.70666
2.7079
2.70853
2.70948
2.71184
2.71655
2.72329
2.73007
2.73532
2.73761
2.73809
2.73744
2.73643
2.73622
2.73686
2.73807
2.74052
2.74256
2.74332
2.74336
2.74307
2.74216
2.74075
2.73943
2.73877
2.73982
2.74524
2.75774
2.77534
2.78999
2.79537
1
1
1
1
1
1
1
1
1
1
1
1
1
1
1
1
1
1
1
1
1
1
1
1
1
1
1
1
1
1
1
1
1
1
1
1
1
1
1
1
1
1
1
1
1
1
1
1
1
1
1
1
1.00005
2.1925
2.66027
2.65885
2.66026
2.66348
2.66769
2.67219
2.67659
2.6809
2.68539
2.69017
2.69491
2.69874
2.7009
2.70205
2.70314
2.70532
2.70961
2.71605
2.72297
2.72888
2.73196
2.7328
2.73228
2.73109
2.73039
2.73056
2.73113
2.73297
2.73483
2.73549
2.73521
2.73431
2.73256
2.73028
2.72796
2.72628
2.72602
2.72923
2.73931
2.75534
2.76921
2.7748
1
1
1
1
1
1
1
1
1
1
1
1
1
1
1
1
1
1
1
1
1
1
1
1
1
1
1
1
1
1
1
1
1
1
1
1
1
1
1
1
1
1
1
1
1
1
1
1
1
1
1
1
1
2.02459
2.65514
2.66497
2.66505
2.66672
2.669
2.67144
2.67361
2.67617
2.67951
2.68338
2.68761
2.69136
2.69373
2.69518
2.69638
2.69828
2.702
2.70789
2.71448
2.72094
2.72502
2.72628
2.72616
2.72507
2.72393
2.72357
2.72353
2.72467
2.72629
2.72693
2.72643
2.72495
2.7223
2.71888
2.71522
2.71187
2.70996
2.7112
2.71864
2.73222
2.74259
2.74343
1
1
1
1
1
1
1
1
1
1
1
1
1
1
1
1
1
1
1
1
1
1
1
1
1
1
1
1
1
1
1
1
1
1
1
1
1
1
1
1
1
1
1
1
1
1
1
1
1
1
1
1
1
1.80063
2.59841
2.66402
2.66555
2.66804
2.66977
2.6712
2.67279
2.67491
2.67753
2.68037
2.68323
2.68596
2.68782
2.68901
2.68997
2.69142
2.69445
2.69953
2.70534
2.71172
2.71659
2.7187
2.71893
2.71823
2.717
2.71597
2.71531
2.71576
2.71691
2.71746
2.71683
2.71486
2.71127
2.70654
2.70125
2.69594
2.69155
2.68965
2.69178
2.69778
2.70219
2.6998
1
1
1
1
1
1
1
1
1
1
1
1
1
1
1
1
1
1
1
1
1
1
1
1
1
1
1
1
1
1
1
1
1
1
1
1
1
1
1
1
1
1
1
1
1
1
1
1
1
1
1
1
1
1.48899
2.48163
2.66006
2.65971
2.66249
2.66516
2.66781
2.67045
2.67323
2.67608
2.67879
2.68113
2.68299
2.68394
2.68433
2.68469
2.68553
2.68773
2.69173
2.69654
2.70206
2.70707
2.71001
2.71084
2.71045
2.70937
2.70784
2.70653
2.70621
2.7067
2.70701
2.70628
2.70389
2.69945
2.69335
2.68621
2.67847
2.67053
2.66359
2.65948
2.65819
2.65699
2.65746
1
1
1
1
1
1
1
1
1
1
1
1
1
1
1
1
1
1
1
1
1
1
1
1
1
1
1
1
1
1
1
1
1
1
1
1
1
1
1
1
1
1
1
1
1
1
1
1
1
1
1
1
1
1.12357
2.35418
2.65121
2.64766
2.65008
2.65438
2.6601
2.66493
2.6692
2.67306
2.6764
2.67894
2.68056
2.68101
2.68087
2.68071
2.681
2.68237
2.6852
2.68889
2.69305
2.69739
2.70061
2.70204
2.70195
2.70106
2.69933
2.69742
2.69618
2.69589
2.6957
2.6947
2.6919
2.68672
2.67933
2.67019
2.65969
2.64792
2.63533
2.6213
2.60029
2.55044
2.4189
1
1
1
1
1
1
1
1
1
1
1
1
1
1
1
1
1
1
1
1
1
1
1
1
1
1
1
1
1
1
1
1
1
1
1
1
1
1
1
1
1
1
1
1
1
1
1
1
1
1
1
1
1
1.00362
2.24648
2.63458
2.63401
2.63885
2.64445
2.6508
2.65666
2.66212
2.6672
2.6717
2.67517
2.67728
2.6778
2.67752
2.67717
2.67727
2.67815
2.68009
2.68267
2.6854
2.68858
2.69134
2.69289
2.69295
2.69222
2.69047
2.68815
2.68601
2.68466
2.68367
2.68209
2.67882
2.67301
2.66444
2.65334
2.63992
2.62383
2.60388
2.57733
2.53439
2.46589
2.26158
1
1
1
1
1
1
1
1
1
1
1
1
1
1
1
1
1
1
1
1
1
1
1
1
1
1
1
1
1
1
1
1
1
1
1
1
1
1
1
1
1
1
1
1
1
1
1
1
1
1
1
1
1
1
2.0626
2.6233
2.63622
2.63944
2.64178
2.64473
2.64907
2.65408
2.65937
2.66456
2.66904
2.67213
2.67335
2.6733
2.67314
2.67332
2.67414
2.67569
2.6775
2.67919
2.68113
2.68294
2.68405
2.68405
2.68331
2.68151
2.67888
2.67591
2.67336
2.67122
2.66874
2.66481
2.65837
2.64878
2.63586
2.61961
2.59917
2.57308
2.53591
2.48623
2.37583
2.1746
1
1
1
1
1
1
1
1
1
1
1
1
1
1
1
1
1
1
1
1
1
1
1
1
1
1
1
1
1
1
1
1
1
1
1
1
1
1
1
1
1
1
1
1
1
1
1
1
1
1
1
1
1
0.999999
1.79564
2.57373
2.6376
2.63801
2.63941
2.64171
2.64459
2.64808
2.65223
2.6569
2.66152
2.66521
2.66723
2.66786
2.66815
2.66873
2.66978
2.67128
2.6727
2.67382
2.67476
2.67552
2.6759
2.67569
2.67473
2.67271
2.66973
2.66603
2.66225
2.65873
2.65504
2.65018
2.64295
2.63243
2.61792
2.59926
2.57504
2.54398
2.50005
2.43691
2.31676
2.13776
1
1
1
1
1
1
1
1
1
1
1
1
1
1
1
1
1
1
1
1
1
1
1
1
1
1
1
1
1
1
1
1
1
1
1
1
1
1
1
1
1
1
1
1
1
1
1
1
1
1
1
1
1
1
1.42958
2.45715
2.63528
2.63274
2.63458
2.63763
2.64054
2.64358
2.64685
2.6505
2.65433
2.65771
2.65996
2.66112
2.66189
2.66291
2.66431
2.66601
2.66751
2.6685
2.66882
2.66879
2.66854
2.66794
2.66666
2.66433
2.66091
2.6565
2.65155
2.64656
2.6414
2.63531
2.62708
2.61566
2.59984
2.57925
2.55227
2.51686
2.46907
2.39732
2.28593
2.14773
1
1
1
1
1
1
1
1
1
1
1
1
1
1
1
1
1
1
1
1
1
1
1
1
1
1
1
1
1
1
1
1
1
1
1
1
1
1
1
1
1
1
1
1
1
1
1
1
1
1
1
1
1
1
1.05086
2.31652
2.63297
2.62813
2.62943
2.6325
2.63578
2.63893
2.642
2.64509
2.64812
2.65079
2.65267
2.65391
2.65487
2.65611
2.65774
2.6597
2.66146
2.66259
2.66269
2.66227
2.66152
2.66054
2.65893
2.65625
2.65233
2.64727
2.64131
2.63495
2.6282
2.62066
2.61119
2.59876
2.58191
2.5598
2.53097
2.49304
2.44233
2.37045
2.272
2.15729
1
1
1
1
1
1
1
1
1
1
1
1
1
1
1
1
1
1
1
1
1
1
1
1
1
1
1
1
1
1
1
1
1
1
1
1
1
1
1
1
1
1
1
1
1
1
1
1
1
1
1
1
1
1
1.00057
2.15809
2.60802
2.6144
2.62012
2.62506
2.62908
2.63281
2.63635
2.63962
2.64239
2.64455
2.64593
2.6469
2.64769
2.64877
2.65027
2.6522
2.6541
2.65549
2.65585
2.6554
2.6545
2.65326
2.65134
2.64832
2.64395
2.63831
2.63153
2.624
2.61574
2.60662
2.59573
2.58217
2.56447
2.54139
2.51146
2.47222
2.42141
2.35331
2.26551
2.16761
1
1
1
1
1
1
1
1
1
1
1
1
1
1
1
1
1
1
1
1
1
1
1
1
1
1
1
1
1
1
1
1
1
1
1
1
1
1
1
1
1
1
1
1
1
1
1
1
1
1
1
1
1
1
0.999997
1.89891
2.57278
2.61421
2.61674
2.61997
2.6231
2.62666
2.63043
2.63392
2.63675
2.63873
2.63984
2.64052
2.641
2.64163
2.64261
2.64403
2.64566
2.64715
2.64792
2.64771
2.64699
2.64567
2.64353
2.64024
2.63555
2.62946
2.62205
2.6136
2.60409
2.59348
2.58116
2.56636
2.54788
2.52423
2.49397
2.45445
2.40522
2.34161
2.26581
2.18176
1
1
1
1
1
1
1
1
1
1
1
1
1
1
1
1
1
1
1
1
1
1
1
1
1
1
1
1
1
1
1
1
1
1
1
1
1
1
1
1
1
1
1
1
1
1
1
1
1
1
1
1
1
1
0.999999
1.50988
2.46522
2.61274
2.6124
2.61426
2.61697
2.62014
2.62362
2.6272
2.63032
2.63256
2.63383
2.63448
2.63473
2.63487
2.63516
2.63576
2.63672
2.63794
2.63896
2.6392
2.63872
2.63743
2.63518
2.63175
2.62688
2.62053
2.61274
2.60363
2.59319
2.58134
2.56774
2.55177
2.5325
2.50848
2.4787
2.43967
2.39208
2.33409
2.26809
2.19572
1
1
1
1
1
1
1
1
1
1
1
1
1
1
1
1
1
1
1
1
1
1
1
1
1
1
1
1
1
1
1
1
1
1
1
1
1
1
1
1
1
1
1
1
1
1
1
1
1
1
1
1
1
1
1
1.07124
2.32098
2.61315
2.60889
2.60944
2.61093
2.61297
2.61587
2.61941
2.62289
2.62572
2.62757
2.62853
2.62869
2.6285
2.62817
2.62793
2.62807
2.62866
2.6295
2.62993
2.62954
2.62832
2.62609
2.62266
2.61778
2.61136
2.60339
2.59389
2.58285
2.57015
2.55557
2.53863
2.51863
2.49442
2.4652
2.42719
2.38281
2.32998
2.27131
2.20649
1
1
1
1
1
1
1
1
1
1
1
1
1
1
1
1
1
1
1
1
1
1
1
1
1
1
1
1
1
1
1
1
1
1
1
1
1
1
1
1
1
1
1
1
1
1
1
1
1
1
1
1
1
1
1
1.00116
2.1531
2.58699
2.59793
2.60252
2.60369
2.60519
2.60779
2.61129
2.615
2.61837
2.62087
2.62229
2.62252
2.62219
2.62149
2.62062
2.62003
2.62005
2.62029
2.62042
2.61991
2.61859
2.6163
2.61287
2.60804
2.60167
2.59371
2.58409
2.57277
2.55962
2.54448
2.52694
2.50643
2.48221
2.4531
2.41746
2.37669
2.32701
2.27405
2.21474
1
1
1
1
1
1
1
1
1
1
1
1
1
1
1
1
1
1
1
1
1
1
1
1
1
1
1
1
1
1
1
1
1
1
1
1
1
1
1
1
1
1
1
1
1
1
1
1
1
1
1
1
1
1
1
0.999993
1.85359
2.54334
2.59421
2.59569
2.59682
2.59857
2.6011
2.60431
2.60784
2.61132
2.61415
2.61589
2.6162
2.6158
2.61487
2.61365
2.61258
2.61205
2.61171
2.61123
2.61027
2.60862
2.60612
2.60259
2.59777
2.59148
2.58361
2.57405
2.56269
2.54943
2.53413
2.51643
2.49583
2.47176
2.44303
2.41024
2.37149
2.32487
2.27758
2.22284
1
1
1
1
1
1
1
1
1
1
1
1
1
1
1
1
1
1
1
1
1
1
1
1
1
1
1
1
1
1
1
1
1
1
1
1
1
1
1
1
1
1
1
1
1
1
1
1
1
1
1
1
1
1
1
0.999998
1.41725
2.43211
2.58693
2.5844
2.58715
2.59103
2.59434
2.59746
2.60081
2.60417
2.60705
2.60896
2.60942
2.60903
2.60803
2.60671
2.60544
2.60452
2.60368
2.60266
2.60117
2.59905
2.59612
2.59223
2.58716
2.58081
2.57302
2.56361
2.55238
2.53924
2.52409
2.50662
2.48636
2.46263
2.43521
2.4042
2.36653
2.32491
2.2819
2.23089
1
1
1
1
1
1
1
1
1
1
1
1
1
1
1
1
1
1
1
1
1
1
1
1
1
1
1
1
1
1
1
1
1
1
1
1
1
1
1
1
1
1
1
1
1
1
1
1
1
1
1
1
1
1
1
1
1.04303
2.28567
2.5875
2.58057
2.58159
2.58406
2.5875
2.59081
2.59412
2.59725
2.59989
2.60169
2.60218
2.60179
2.60078
2.59945
2.5981
2.59693
2.5958
2.59448
2.59265
2.59013
2.58669
2.58225
2.57672
2.57011
2.56227
2.55295
2.54188
2.52896
2.51413
2.4971
2.47753
2.45455
2.42893
2.39844
2.36275
2.32608
2.28565
2.23814
1
1
1
1
1
1
1
1
1
1
1
1
1
1
1
1
1
1
1
1
1
1
1
1
1
1
1
1
1
1
1
1
1
1
1
1
1
1
1
1
1
1
1
1
1
1
1
1
1
1
1
1
1
1
1
1
1.00035
2.05241
2.55512
2.56983
2.57526
2.579
2.58118
2.58393
2.58708
2.59008
2.59256
2.59421
2.59466
2.59428
2.5933
2.59196
2.59054
2.5892
2.58791
2.58651
2.58459
2.58185
2.57798
2.57294
2.56683
2.5598
2.55172
2.54236
2.53134
2.51862
2.50414
2.48759
2.46893
2.44686
2.42259
2.39333
2.36084
2.32746
2.28795
2.24486
1
1
1
1
1
1
1
1
1
1
1
1
1
1
1
1
1
1
1
1
1
1
1
1
1
1
1
1
1
1
1
1
1
1
1
1
1
1
1
1
1
1
1
1
1
1
1
1
1
1
1
1
1
1
1
1
0.999999
1.6396
2.47682
2.57364
2.57304
2.5737
2.57514
2.57722
2.57978
2.58251
2.58488
2.58648
2.58692
2.58654
2.5856
2.58426
2.58276
2.58128
2.57986
2.57845
2.57659
2.57381
2.56971
2.56428
2.55773
2.55027
2.54186
2.53229
2.52117
2.50851
2.4943
2.47817
2.46029
2.43899
2.41647
2.38932
2.35931
2.32736
2.28967
2.25216
1
1
1
1
1
1
1
1
1
1
1
1
1
1
1
1
1
1
1
1
1
1
1
1
1
1
1
1
1
1
1
1
1
1
1
1
1
1
1
1
1
1
1
1
1
1
1
1
1
1
1
1
1
1
1
1
1
1.12185
2.32693
2.57445
2.56713
2.56742
2.56848
2.5699
2.5718
2.57425
2.57667
2.57854
2.57932
2.57903
2.57817
2.57678
2.5751
2.57339
2.57181
2.57034
2.5685
2.56574
2.56155
2.55598
2.54924
2.54151
2.5328
2.52295
2.51165
2.4989
2.48483
2.46896
2.45143
2.43132
2.41053
2.38456
2.35673
2.32668
2.29284
2.25873
1
1
1
1
1
1
1
1
1
1
1
1
1
1
1
1
1
1
1
1
1
1
1
1
1
1
1
1
1
1
1
1
1
1
1
1
1
1
1
1
1
1
1
1
1
1
1
1
1
1
1
1
1
1
1
1
1
1.00327
2.14173
2.54539
2.55246
2.55936
2.56254
2.56276
2.56382
2.56576
2.56809
2.57027
2.57159
2.57152
2.57083
2.56944
2.56762
2.56566
2.56382
2.56214
2.56019
2.55737
2.55321
2.54776
2.54113
2.53339
2.52453
2.51443
2.50293
2.49008
2.47605
2.46021
2.44301
2.42432
2.40384
2.37912
2.35435
2.32655
2.29563
2.2628
1
1
1
1
1
1
1
1
1
1
1
1
1
1
1
1
1
1
1
1
1
1
1
1
1
1
1
1
1
1
1
1
1
1
1
1
1
1
1
1
1
1
1
1
1
1
1
1
1
1
1
1
1
1
1
1
1
0.999988
1.74911
2.48202
2.55323
2.55413
2.55509
2.5559
2.5567
2.55788
2.55969
2.56184
2.56363
2.56416
2.56365
2.56236
2.56043
2.55818
2.55595
2.55387
2.55161
2.54864
2.54457
2.53937
2.53301
2.52546
2.51665
2.50649
2.49493
2.48204
2.46802
2.45219
2.43538
2.41726
2.39665
2.37413
2.352
2.32517
2.29564
2.26518
1
1
1
1
1
1
1
1
1
1
1
1
1
1
1
1
1
1
1
1
1
1
1
1
1
1
1
1
1
1
1
1
1
1
1
1
1
1
1
1
1
1
1
1
1
1
1
1
1
1
1
1
1
1
1
1
1
0.999997
1.20448
2.34124
2.55287
2.54542
2.54607
2.54759
2.54884
2.54982
2.55127
2.55323
2.55527
2.55644
2.55618
2.55514
2.55329
2.55087
2.54821
2.54555
2.5428
2.53957
2.53559
2.53072
2.52474
2.5175
2.50893
2.49893
2.48752
2.4747
2.46083
2.44509
2.42843
2.4104
2.39049
2.37013
2.3482
2.32171
2.29531
2.26825
1
1
1
1
1
1
1
1
1
1
1
1
1
1
1
1
1
1
1
1
1
1
1
1
1
1
1
1
1
1
1
1
1
1
1
1
1
1
1
1
1
1
1
1
1
1
1
1
1
1
1
1
1
1
1
1
1
0.999999
1.00923
2.16752
2.52713
2.52946
2.53555
2.54027
2.5414
2.54225
2.54339
2.54497
2.54689
2.54839
2.54834
2.5476
2.54598
2.54354
2.54051
2.53724
2.53388
2.53032
2.52638
2.52177
2.51613
2.50927
2.50105
2.49137
2.48033
2.46774
2.45421
2.43855
2.42218
2.40467
2.38545
2.36518
2.34298
2.31916
2.29547
2.27038
1
1
1
1
1
1
1
1
1
1
1
1
1
1
1
1
1
1
1
1
1
1
1
1
1
1
1
1
1
1
1
1
1
1
1
1
1
1
1
1
1
1
1
1
1
1
1
1
1
1
1
1
1
1
1
1
1
1
1
1.7616
2.46601
2.53031
2.53139
2.53303
2.53491
2.53605
2.53672
2.5376
2.53892
2.54023
2.54033
2.53978
2.53843
2.5361
2.53288
2.52908
2.52511
2.52116
2.51709
2.51262
2.50725
2.50076
2.49298
2.48374
2.47321
2.461
2.44782
2.43257
2.41704
2.39986
2.38049
2.3603
2.33969
2.31789
2.29497
2.27035
1
1
1
1
1
1
1
1
1
1
1
1
1
1
1
1
1
1
1
1
1
1
1
1
1
1
1
1
1
1
1
1
1
1
1
1
1
1
1
1
1
1
1
1
1
1
1
1
1
1
1
1
1
1
1
1
1
1
0.999998
1.18739
2.32573
2.53176
2.52342
2.5246
2.52708
2.52911
2.52971
2.53026
2.53108
2.53201
2.53212
2.53165
2.53049
2.52832
2.52505
2.52096
2.51655
2.5122
2.50793
2.5034
2.49814
2.49195
2.48463
2.47593
2.46593
2.45421
2.44142
2.42708
2.41233
2.39493
2.3761
2.35731
2.33783
2.31588
2.29242
2.26899
1
1
1
1
1
1
1
1
1
1
1
1
1
1
1
1
1
1
1
1
1
1
1
1
1
1
1
1
1
1
1
1
1
1
1
1
1
1
1
1
1
1
1
1
1
1
1
1
1
1
1
1
1
1
1
1
1
1
0.999999
1.0076
2.13711
2.50316
2.50585
2.5128
2.51969
2.52164
2.52248
2.5231
2.52359
2.52404
2.52395
2.52344
2.52241
2.52044
2.51723
2.51301
2.5083
2.5036
2.49901
2.4943
2.48906
2.48312
2.4762
2.468
2.45842
2.44723
2.43498
2.42174
2.40721
2.39039
2.37312
2.35544
2.33565
2.31282
2.29055
2.26897
1
1
1
1
1
1
1
1
1
1
1
1
1
1
1
1
1
1
1
1
1
1
1
1
1
1
1
1
1
1
1
1
1
1
1
1
1
1
1
1
1
1
1
1
1
1
1
1
1
1
1
1
1
1
1
1
1
1
1
0.999995
1.68688
2.43032
2.50715
2.51038
2.51379
2.5142
2.51513
2.51594
2.51626
2.51617
2.51579
2.51507
2.51402
2.51224
2.50921
2.50509
2.50029
2.49535
2.49041
2.48549
2.48021
2.47442
2.46781
2.45992
2.45068
2.44001
2.42844
2.41599
2.40181
2.38645
2.37058
2.3528
2.33239
2.31109
2.29092
2.26978
1
1
1
1
1
1
1
1
1
1
1
1
1
1
1
1
1
1
1
1
1
1
1
1
1
1
1
1
1
1
1
1
1
1
1
1
1
1
1
1
1
1
1
1
1
1
1
1
1
1
1
1
1
1
1
1
1
1
1
0.999997
1.125
2.27813
2.50987
2.5036
2.50362
2.50473
2.50631
2.50761
2.50805
2.50782
2.50728
2.50646
2.50543
2.50384
2.50109
2.49721
2.49255
2.48753
2.48234
2.4772
2.47184
2.46611
2.45952
2.45192
2.44305
2.43282
2.42185
2.40984
2.39649
2.38254
2.36717
2.34951
2.33004
2.31104
2.29147
2.27033
1
1
1
1
1
1
1
1
1
1
1
1
1
1
1
1
1
1
1
1
1
1
1
1
1
1
1
1
1
1
1
1
1
1
1
1
1
1
1
1
1
1
1
1
1
1
1
1
1
1
1
1
1
1
1
1
1
1
1
0.999999
1.00336
2.02848
2.47578
2.48587
2.49229
2.4957
2.49837
2.4998
2.50001
2.49974
2.49912
2.49822
2.49708
2.49546
2.49287
2.48926
2.4849
2.47997
2.47471
2.46941
2.46399
2.45822
2.45166
2.44413
2.43559
2.42584
2.41533
2.4037
2.39129
2.37796
2.36274
2.34593
2.32851
2.31094
2.29123
2.27017
1
1
1
1
1
1
1
1
1
1
1
1
1
1
1
1
1
1
1
1
1
1
1
1
1
1
1
1
1
1
1
1
1
1
1
1
1
1
1
1
1
1
1
1
1
1
1
1
1
1
1
1
1
1
1
1
1
1
1
1
0.999993
1.49177
2.37965
2.48744
2.48542
2.48746
2.49019
2.49122
2.49129
2.4912
2.4908
2.49009
2.48894
2.48722
2.48468
2.48128
2.47721
2.47256
2.46743
2.4621
2.45663
2.45076
2.44418
2.43662
2.42831
2.41909
2.40897
2.3978
2.38592
2.37264
2.35798
2.34255
2.32673
2.30986
2.29026
2.27038
1
1
1
1
1
1
1
1
1
1
1
1
1
1
1
1
1
1
1
1
1
1
1
1
1
1
1
1
1
1
1
1
1
1
1
1
1
1
1
1
1
1
1
1
1
1
1
1
1
1
1
1
1
1
1
1
1
1
1
1
0.999998
1.05678
2.21734
2.47935
2.47659
2.4794
2.48069
2.48124
2.48157
2.48207
2.48233
2.48207
2.48109
2.47925
2.4766
2.47328
2.46942
2.46514
2.46025
2.45502
2.44953
2.44359
2.43697
2.42945
2.42129
2.41254
2.40286
2.39216
2.38035
2.36705
2.35329
2.33912
2.32412
2.30752
2.28896
2.27087
1
1
1
1
1
1
1
1
1
1
1
1
1
1
1
1
1
1
1
1
1
1
1
1
1
1
1
1
1
1
1
1
1
1
1
1
1
1
1
1
1
1
1
1
1
1
1
1
1
1
1
1
1
1
1
1
1
1
1
1
1
1.00056
1.82693
2.425
2.46632
2.47324
2.47431
2.47425
2.47417
2.47449
2.47489
2.47468
2.47367
2.47164
2.4688
2.46543
2.46164
2.45762
2.45304
2.44802
2.44259
2.43663
2.42997
2.42249
2.41442
2.40594
2.39664
2.3863
2.37452
2.36159
2.34882
2.33534
2.32084
2.3048
2.28781
2.27094
1
1
1
1
1
1
1
1
1
1
1
1
1
1
1
1
1
1
1
1
1
1
1
1
1
1
1
1
1
1
1
1
1
1
1
1
1
1
1
1
1
1
1
1
1
1
1
1
1
1
1
1
1
1
1
1
1
1
1
1
1
0.999999
1.19359
2.28568
2.47492
2.46749
2.46739
2.46752
2.46743
2.46732
2.46725
2.46687
2.46578
2.46374
2.46092
2.45759
2.45388
2.45002
2.44576
2.44103
2.4357
2.4298
2.4232
2.41581
2.40783
2.39944
2.39041
2.38032
2.36871
2.35658
2.3445
2.33129
2.31719
2.30203
2.28646
2.27028
1
1
1
1
1
1
1
1
1
1
1
1
1
1
1
1
1
1
1
1
1
1
1
1
1
1
1
1
1
1
1
1
1
1
1
1
1
1
1
1
1
1
1
1
1
1
1
1
1
1
1
1
1
1
1
1
1
1
1
1
1
1
1.00823
2.06017
2.44546
2.45034
2.4562
2.45957
2.46097
2.46067
2.45997
2.45906
2.45776
2.4558
2.45316
2.44992
2.44623
2.44238
2.43828
2.43375
2.42861
2.42284
2.41638
2.40915
2.40132
2.39297
2.38402
2.37405
2.36285
2.35156
2.33991
2.32703
2.31345
2.29926
2.28463
2.2687
1
1
1
1
1
1
1
1
1
1
1
1
1
1
1
1
1
1
1
1
1
1
1
1
1
1
1
1
1
1
1
1
1
1
1
1
1
1
1
1
1
1
1
1
1
1
1
1
1
1
1
1
1
1
1
1
1
1
1
1
1
1
1
1.49722
2.34854
2.45313
2.45049
2.45174
2.45376
2.45345
2.45227
2.45075
2.44926
2.44751
2.44517
2.44216
2.43862
2.43483
2.4308
2.42638
2.42139
2.41576
2.40947
2.4025
2.3949
2.38663
2.37768
2.36777
2.35706
2.34643
2.33513
2.32273
2.30977
2.29634
2.28218
2.26665
1
1
1
1
1
1
1
1
1
1
1
1
1
1
1
1
1
1
1
1
1
1
1
1
1
1
1
1
1
1
1
1
1
1
1
1
1
1
1
1
1
1
1
1
1
1
1
1
1
1
1
1
1
1
1
1
1
1
1
1
1
1
0.999998
1.05799
2.18186
2.44609
2.44212
2.4434
2.44476
2.44441
2.44334
2.44184
2.44041
2.43888
2.43681
2.43408
2.43081
2.42713
2.42312
2.4187
2.41378
2.40827
2.40213
2.39542
2.38814
2.38008
2.37125
2.36151
2.35132
2.34108
2.33014
2.31836
2.30604
2.29321
2.27948
2.26469
1
1
1
1
1
1
1
1
1
1
1
1
1
1
1
1
1
1
1
1
1
1
1
1
1
1
1
1
1
1
1
1
1
1
1
1
1
1
1
1
1
1
1
1
1
1
1
1
1
1
1
1
1
1
1
1
1
1
1
1
1
1
0.999999
1.00059
1.73845
2.37626
2.43075
2.43581
2.43712
2.43611
2.43481
2.43339
2.43183
2.43027
2.42845
2.42613
2.42316
2.41961
2.41558
2.4111
2.40619
2.40078
2.3948
2.38833
2.38131
2.37351
2.36488