/*--------------------------------*- C++ -*----------------------------------*\
  =========                 |
  \\      /  F ield         | OpenFOAM: The Open Source CFD Toolbox
   \\    /   O peration     | Website:  https://openfoam.org
    \\  /    A nd           | Version:  7
     \\/     M anipulation  |
\*---------------------------------------------------------------------------*/
FoamFile
{
    version     2.0;
    format      ascii;
    class       volScalarField;
    location    "2.1";
    object      p;
}
// * * * * * * * * * * * * * * * * * * * * * * * * * * * * * * * * * * * * * //

dimensions      [1 -1 -2 0 0 0 0];

internalField   nonuniform List<scalar> 
16128
(
1
1
1
1
1
1
1
1
1
1
1
1
1
1
1
1
1
1
1
1
1
1
1
1
1.9668
8.70695
10.553
10.611
10.7212
10.8229
10.9244
11.0231
11.1191
11.2109
11.2993
11.3863
11.4704
11.5505
11.6271
11.6999
11.7686
11.8315
11.8886
11.9388
11.9808
12.0094
12.0285
12.039
1
1
1
1
1
1
1
1
1
1
1
1
1
1
1
1
1
1
1
1
1
1
1
1
1.91962
8.62703
10.5436
10.6133
10.722
10.8216
10.9219
11.0202
11.1159
11.2068
11.2937
11.3792
11.4626
11.5427
11.6192
11.6915
11.7592
11.821
11.8769
11.9262
11.9674
11.9949
12.0136
12.024
1
1
1
1
1
1
1
1
1
1
1
1
1
1
1
1
1
1
1
1
1
1
1
1
1.81647
8.48249
10.5358
10.6064
10.714
10.8121
10.9121
11.0105
11.1065
11.1969
11.2824
11.3666
11.4494
11.5303
11.6079
11.6807
11.7478
11.8079
11.8616
11.9084
11.9473
11.9724
11.9899
11.9997
1
1
1
1
1
1
1
1
1
1
1
1
1
1
1
1
1
1
1
1
1
1
1
1
1.67814
8.26317
10.5286
10.5974
10.7043
10.8013
10.9005
10.9978
11.0925
11.1817
11.2652
11.3474
11.4294
11.5105
11.5884
11.6612
11.7275
11.786
11.8375
11.8821
11.918
11.9402
11.9556
11.9644
1
1
1
1
1
1
1
1
1
1
1
1
1
1
1
1
1
1
1
1
1
1
1
1
1.51542
7.95706
10.5206
10.5865
10.6924
10.7882
10.8859
10.9809
11.0732
11.1599
11.2425
11.3246
11.4066
11.4873
11.5643
11.6355
11.6995
11.7553
11.804
11.8455
11.8781
11.8982
11.9117
11.9201
1
1
1
1
1
1
1
1
1
1
1
1
1
1
1
1
1
1
1
1
1
1
1
1
1.33624
7.56249
10.5094
10.5663
10.6711
10.765
10.8609
10.9539
11.0453
11.1319
11.2146
11.2962
11.3768
11.4552
11.5296
11.598
11.6589
11.7114
11.7572
11.7963
11.8267
11.8467
11.86
11.8692
1
1
1
1
1
1
1
1
1
1
1
1
1
1
1
1
1
1
1
1
1
1
1
1
1.14526
7.08985
10.4813
10.5439
10.6513
10.7502
10.8472
10.94
11.0275
11.1091
11.187
11.2632
11.3369
11.4085
11.4781
11.5438
11.6039
11.6561
11.7007
11.7374
11.7642
11.7823
11.7941
11.8031
1
1
1
1
1
1
1
1
1
1
1
1
1
1
1
1
1
1
1
1
1
1
1
1
1.0074
6.46967
10.4136
10.5001
10.5958
10.6932
10.7874
10.8791
10.9673
11.0514
11.1319
11.2093
11.2829
11.3535
11.4217
11.4853
11.5422
11.5901
11.63
11.6624
11.6856
11.7021
11.7132
11.7219
1
1
1
1
1
1
1
1
1
1
1
1
1
1
1
1
1
1
1
1
1
1
1
1
1.00005
5.72168
10.2882
10.4506
10.5489
10.653
10.7483
10.8399
10.9263
11.0078
11.0849
11.1578
11.2262
11.2915
11.3545
11.4132
11.465
11.5078
11.5423
11.5705
11.5912
11.608
11.6206
11.6316
1
1
1
1
1
1
1
1
1
1
1
1
1
1
1
1
1
1
1
1
1
1
1
1
1
4.89224
10.1103
10.3957
10.4996
10.6037
10.6981
10.788
10.8722
10.9512
11.0253
11.0943
11.1582
11.2179
11.2751
11.328
11.3741
11.4117
11.4416
11.4665
11.4835
11.4968
11.5067
11.5153
1
1
1
1
1
1
1
1
1
1
1
1
1
1
1
1
1
1
1
1
1
1
1
1
1
4.01797
9.83325
10.3508
10.4623
10.5646
10.6557
10.7391
10.817
10.8895
10.957
11.0189
11.0757
11.1278
11.1779
11.2245
11.2644
11.2952
11.3179
11.3351
11.3461
11.3572
11.3661
11.3772
1
1
1
1
1
1
1
1
1
1
1
1
1
1
1
1
1
1
1
1
1
1
1
1
1
3.17717
9.4083
10.3475
10.425
10.5216
10.6103
10.6913
10.7648
10.8309
10.891
10.9445
10.9928
11.0359
11.076
11.1129
11.1427
11.1632
11.1783
11.1874
11.1918
11.1908
11.1852
11.1819
1
1
1
1
1
1
1
1
1
1
1
1
1
1
1
1
1
1
1
1
1
1
1
1
1
2.327
8.73419
10.3472
10.3963
10.4913
10.5665
10.6375
10.7034
10.7627
10.8159
10.8613
10.9012
10.9349
10.9638
10.9887
11.006
11.0142
11.0138
11.0011
10.9833
10.9634
10.943
10.9471
1
1
1
1
1
1
1
1
1
1
1
1
1
1
1
1
1
1
1
1
1
1
1
1
1
1.53509
8.01925
10.4343
10.3299
10.4125
10.4868
10.5644
10.631
10.687
10.7349
10.7727
10.8046
10.829
10.8447
10.8555
10.8568
10.8465
10.8231
10.7905
10.7519
10.7096
10.6457
10.5716
1
1
1
1
1
1
1
1
1
1
1
1
1
1
1
1
1
1
1
1
1
1
1
1
1
1.03891
6.99086
10.3122
10.2526
10.3416
10.4131
10.4815
10.5412
10.5922
10.6352
10.6672
10.6918
10.707
10.7106
10.7056
10.689
10.6578
10.6095
10.5435
10.4458
10.3083
10.165
10.058
1
1
1
1
1
1
1
1
1
1
1
1
1
1
1
1
1
1
1
1
1
1
1
1
1
1.00019
5.62479
9.95923
10.1306
10.2371
10.3112
10.3768
10.4338
10.481
10.5197
10.5489
10.5686
10.573
10.5652
10.5435
10.5068
10.449
10.3643
10.246
10.0846
9.88406
9.66692
9.57149
1
1
1
1
1
1
1
1
1
1
1
1
1
1
1
1
1
1
1
1
1
1
1
1
1
0.999999
4.31166
9.5962
10.0803
10.1824
10.2586
10.3012
10.3393
10.3722
10.3999
10.4218
10.4338
10.4256
10.4064
10.3679
10.3085
10.2208
10.0973
9.93061
9.68937
9.30235
8.4323
6.46557
1
1
1
1
1
1
1
1
1
1
1
1
1
1
1
1
1
1
1
1
1
1
1
1
1
1
2.97332
8.93906
10.0172
10.1037
10.1774
10.2228
10.2552
10.277
10.2883
10.2953
10.2952
10.272
10.2376
10.1808
10.0974
9.97891
9.81321
9.57964
9.23636
8.6367
7.69146
5.48961
1
1
1
1
1
1
1
1
1
1
1
1
1
1
1
1
1
1
1
1
1
1
1
1
1
1
1.73823
8.08289
10.1108
10.0618
10.1009
10.1403
10.1626
10.1752
10.1735
10.1668
10.1482
10.1141
10.0625
9.98729
9.8807
9.73188
9.52641
9.23369
8.81534
8.14905
7.08268
5.16374
1
1
1
1
1
1
1
1
1
1
1
1
1
1
1
1
1
1
1
1
1
1
1
1
1
1
1.06453
6.77748
10.0374
9.94202
9.98396
10.033
10.0552
10.0657
10.057
10.0376
10.0023
9.95514
9.88585
9.79032
9.66094
9.48395
9.2429
8.90817
8.43203
7.76752
6.64717
5.11731
1
1
1
1
1
1
1
1
1
1
1
1
1
1
1
1
1
1
1
1
1
1
1
1
1
1
1.00031
5.02799
9.52647
9.83439
9.92267
9.94326
9.94934
9.95155
9.93639
9.9065
9.85692
9.79361
9.70921
9.59579
9.44666
9.24775
8.97988
8.61824
8.12042
7.45784
6.40686
5.21703
1
1
1
1
1
1
1
1
1
1
1
1
1
1
1
1
1
1
1
1
1
1
1
1
1
1
0.999998
3.24278
8.96924
9.79479
9.84217
9.85209
9.8539
9.8453
9.81996
9.779
9.71587
9.63602
9.53574
9.40607
9.23887
9.02235
8.73825
8.36389
7.86986
7.21191
6.29764
5.3365
1
1
1
1
1
1
1
1
1
1
1
1
1
1
1
1
1
1
1
1
1
1
1
1
1
1
0.999999
1.71475
8.08283
9.84716
9.75401
9.74841
9.73658
9.71816
9.68784
9.64363
9.57427
9.48367
9.37041
9.22733
9.04595
8.81617
8.52385
8.14869
7.67143
7.03781
6.25989
5.46031
1
1
1
1
1
1
1
1
1
1
1
1
1
1
1
1
1
1
1
1
1
1
1
1
1
1
1
1.05306
6.54271
9.63278
9.5826
9.61014
9.60588
9.58613
9.55031
9.50126
9.42949
9.33293
9.21119
9.05794
8.86654
8.62838
8.33226
7.96303
7.50872
6.92202
6.25807
5.56184
1
1
1
1
1
1
1
1
1
1
1
1
1
1
1
1
1
1
1
1
1
1
1
1
1
1
1
1.00012
4.43444
9.14532
9.5061
9.52815
9.51461
9.48908
9.44571
9.38703
9.3078
9.20201
9.07041
8.90733
8.7075
8.46375
8.16735
7.80745
7.37037
6.84257
6.26807
5.65407
1
1
1
1
1
1
1
1
1
1
1
1
1
1
1
1
1
1
1
1
1
1
1
1
1
1
1
0.999999
2.36968
8.43306
9.45918
9.43394
9.42164
9.38759
9.33608
9.26802
9.18157
9.06948
8.93178
8.7641
8.56131
8.31785
8.02555
7.67888
7.25779
6.78489
6.2812
5.72591
1
1
1
1
1
1
1
1
1
1
1
1
1
1
1
1
1
1
1
1
1
1
1
1
1
1
1
1
1.16031
6.85147
9.44162
9.34666
9.32146
9.28051
9.22651
9.15502
9.0639
8.94772
8.80596
8.63635
8.43267
8.19281
7.90334
7.56876
7.16932
6.74158
6.28991
5.78755
1
1
1
1
1
1
1
1
1
1
1
1
1
1
1
1
1
1
1
1
1
1
1
1
1
1
1
1
1.002
4.60779
8.91748
9.20808
9.21897
9.18245
9.12985
9.05693
8.96005
8.83796
8.68963
8.51831
8.31337
8.08367
7.79536
7.47459
7.10253
6.71443
6.29625
5.84049
1
1
1
1
1
1
1
1
1
1
1
1
1
1
1
1
1
1
1
1
1
1
1
1
1
1
1
1
0.999986
2.24045
8.18468
9.2319
9.13654
9.08415
9.03049
8.95515
8.8555
8.73257
8.5825
8.41184
8.21001
7.97965
7.70158
7.3959
7.05059
6.69294
6.29758
5.89055
1
1
1
1
1
1
1
1
1
1
1
1
1
1
1
1
1
1
1
1
1
1
1
1
1
1
1
1
0.999997
1.12502
6.45157
9.04024
9.01335
8.98137
8.92664
8.85197
8.75395
8.6326
8.48443
8.31475
8.11269
7.8856
7.62247
7.33074
7.00966
6.67394
6.30219
5.93115
1
1
1
1
1
1
1
1
1
1
1
1
1
1
1
1
1
1
1
1
1
1
1
1
1
1
1
1
1
1.00104
3.75451
8.46959
8.93284
8.91826
8.87982
8.79467
8.68655
8.5551
8.40218
8.22732
8.02454
7.79965
7.54848
7.26921
6.96909
6.65139
6.30821
5.96362
1
1
1
1
1
1
1
1
1
1
1
1
1
1
1
1
1
1
1
1
1
1
1
1
1
1
1
1
1
0.999995
1.4779
7.42393
9.0733
8.91955
8.81477
8.71302
8.5967
8.46287
8.30975
8.13842
7.94071
7.72212
7.4818
7.21695
6.93528
6.63447
6.31612
5.99062
1
1
1
1
1
1
1
1
1
1
1
1
1
1
1
1
1
1
1
1
1
1
1
1
1
1
1
1
1
0.999999
1.01969
5.22156
8.61306
8.73642
8.71417
8.6258
8.50936
8.37482
8.22126
8.05271
7.85995
7.64881
7.4185
7.16725
6.90093
6.61715
6.31806
6.01186
1
1
1
1
1
1
1
1
1
1
1
1
1
1
1
1
1
1
1
1
1
1
1
1
1
1
1
1
1
1
0.99995
2.36838
7.9379
8.80341
8.6711
8.54478
8.42535
8.29359
8.14363
7.97983
7.79287
7.58917
7.36844
7.12839
6.87288
6.60453
6.32098
6.03349
1
1
1
1
1
1
1
1
1
1
1
1
1
1
1
1
1
1
1
1
1
1
1
1
1
1
1
1
1
1
0.999987
1.13731
6.16127
8.64179
8.51415
8.43039
8.3215
8.19722
8.0571
7.90228
7.72549
7.531
7.31989
7.08957
6.8446
6.5915
6.32257
6.05216
1
1
1
1
1
1
1
1
1
1
1
1
1
1
1
1
1
1
1
1
1
1
1
1
1
1
1
1
1
1
0.999998
1.0013
3.20274
7.97599
8.42437
8.36753
8.27566
8.15394
8.0147
7.85978
7.68397
7.49036
7.28224
7.05835
6.82394
6.58496
6.33061
6.07426
1
1
1
1
1
1
1
1
1
1
1
1
1
1
1
1
1
1
1
1
1
1
1
1
1
1
1
1
1
1
1
0.999998
1.31184
6.45616
8.49349
8.358
8.23773
8.10314
7.95839
7.80391
7.63378
7.44609
7.24488
7.0304
6.80678
6.57811
6.33617
6.09162
1
1
1
1
1
1
1
1
1
1
1
1
1
1
1
1
1
1
1
1
1
1
1
1
1
1
1
1
1
1
1
1
1.00756
3.62988
7.88895
8.22699
8.14665
8.03617
7.90366
7.7532
7.58862
7.41018
7.21805
7.01185
6.79592
6.57469
6.34421
6.11012
1
1
1
1
1
1
1
1
1
1
1
1
1
1
1
1
1
1
1
1
1
1
1
1
1
1
1
1
1
1
1
1
1.00001
1.43753
6.48014
8.28647
8.14056
8.01542
7.87571
7.71879
7.55109
7.374
7.18631
6.9868
6.77858
6.56628
6.34786
6.12345
1
1
1
1
1
1
1
1
1
1
1
1
1
1
1
1
1
1
1
1
1
1
1
1
1
1
1
1
1
1
1
1
1
1.01489
3.69348
7.72741
8.03103
7.94815
7.82252
7.67191
7.51032
7.33895
7.15735
6.96531
6.76519
6.56104
6.35284
6.1382
1
1
1
1
1
1
1
1
1
1
1
1
1
1
1
1
1
1
1
1
1
1
1
1
1
1
1
1
1
1
1
1
1
1.00004
1.4626
6.25314
8.05705
7.94453
7.80247
7.64533
7.48402
7.3158
7.13791
6.95076
6.7569
6.559
6.35792
6.15306
1
1
1
1
1
1
1
1
1
1
1
1
1
1
1
1
1
1
1
1
1
1
1
1
1
1
1
1
1
1
1
1
1
1
1.01648
3.35488
7.48041
7.87829
7.74178
7.59441
7.43889
7.27808
7.10873
6.9312
6.74675
6.55746
6.36421
6.16644
1
1
1
1
1
1
1
1
1
1
1
1
1
1
1
1
1
1
1
1
1
1
1
1
1
1
1
1
1
1
1
1
1
1
1.00007
1.3643
5.8603
7.9044
7.72522
7.57958
7.4224
7.26135
7.09548
6.92442
6.74659
6.56388
6.37802
6.18641
1
1
1
1
1
1
1
1
1
1
1
1
1
1
1
1
1
1
1
1
1
1
1
1
1
1
1
1
1
1
1
1
1
1
1
1.01044
2.7783
7.11034
7.66036
7.53116
7.38836
7.23201
7.07514
6.91289
6.74278
6.56592
6.38598
6.20263
1
1
1
1
1
1
1
1
1
1
1
1
1
1
1
1
1
1
1
1
1
1
1
1
1
1
1
1
1
1
1
1
1
1
1
1.00005
1.21347
5.17469
7.65287
7.54007
7.39362
7.22963
7.0783
6.92053
6.75437
6.58042
6.40232
6.22428
1
1
1
1
1
1
1
1
1
1
1
1
1
1
1
1
1
1
1
1
1
1
1
1
1
1
1
1
1
1
1
1
1
1
1
1
1.00397
2.20799
6.59814
7.50108
7.33971
7.20908
7.06351
6.90691
6.74397
6.57655
6.40516
6.23315
1
1
1
1
1
1
1
1
1
1
1
1
1
1
1
1
1
1
1
1
1
1
1
1
1
1
1
1
1
1
1
1
1
1
1
1
1.00001
1.10093
4.08666
7.23839
7.34957
7.22482
7.08068
6.92315
6.75972
6.59491
6.42708
6.2562
1
1
1
1
1
1
1
1
1
1
1
1
1
1
1
1
1
1
1
1
1
1
1
1
1
1
1
1
1
1
1
1
1
1
1
1
1
1.00129
1.63216
5.7723
7.40256
7.22757
7.07443
6.91753
6.76011
6.60213
6.441
6.27387
1
1
1
1
1
1
1
1
1
1
1
1
1
1
1
1
1
1
1
1
1
1
1
1
1
1
1
1
1
1
1
1
1
1
1
1
1
1
1.03023
2.86457
6.69489
7.20191
7.06048
6.91634
6.7666
6.61178
6.45356
6.29156
1
1
1
1
1
1
1
1
1
1
1
1
1
1
1
1
1
1
1
1
1
1
1
1
1
1
1
1
1
1
1
1
1
1
1
1
1
1
1.00026
1.23323
4.5911
7.1071
7.08955
6.94787
6.79713
6.63993
6.47937
6.31841
1
1
1
1
1
1
1
1
1
1
1
1
1
1
1
1
1
1
1
1
1
1
1
1
1
1
1
1
1
1
1
1
1
1
1
1
1
1
1
1.00527
1.9097
5.86527
7.0744
6.93839
6.78849
6.63715
6.48325
6.32811
1
1
1
1
1
1
1
1
1
1
1
1
1
1
1
1
1
1
1
1
1
1
1
1
1
1
1
1
1
1
1
1
1
1
1
1
1
1
1
1.00003
1.06015
3.11109
6.53471
6.93439
6.79337
6.6474
6.50205
6.35392
1
1
1
1
1
1
1
1
1
1
1
1
1
1
1
1
1
1
1
1
1
1
1
1
1
1
1
1
1
1
1
1
1
1
1
1
1
1
1
1
1.00074
1.30061
4.54544
6.78904
6.82114
6.68148
6.53463
6.38721
1
1
1
1
1
1
1
1
1
1
1
1
1
1
1
1
1
1
1
1
1
1
1
1
1
1
1
1
1
1
1
1
1
1
1
1
1
1
1
1
1
1.00858
1.91521
5.56117
6.78817
6.69193
6.54551
6.40307
1
1
1
1
1
1
1
1
1
1
1
1
1
1
1
1
1
1
1
1
1
1
1
1
1
1
1
1
1
1
1
1
1
1
1
1
1
1
1
1
1
1.00006
1.0617
2.86877
6.18171
6.68983
6.56621
6.4205
1
1
1
1
1
1
1
1
1
1
1
1
1
1
1
1
1
1
1
1
1
1
1
1
1
1
1
1
1
1
1
1
1
1
1
1
1
1
1
1
1
1
1.00082
1.24238
4.02155
6.41118
6.5972
6.45956
1
1
1
1
1
1
1
1
1
1
1
1
1
1
1
1
1
1
1
1
1
1
1
1
1
1
1
1
1
1
1
1
1
1
1
1
1
1
1
1
1
1
1
1.00639
1.65685
4.95522
6.50183
6.49117
1
1
1
1
1
1
1
1
1
1
1
1
1
1
1
1
1
1
1
1
1
1
1
1
1
1
1
1
1
1
1
1
1
1
1
1
1
1
1
1
1
1
1
1.00004
1.03466
2.31762
5.5939
6.45392
1
1
1
1
1
1
1
1
1
1
1
1
1
1
1
1
1
1
1
1
1
1
1
1
1
1
1
1
1
1
1
1
1
1
1
1
1
1
1
1
1
1
1
1
1.0004
1.12594
3.14268
5.98284
1
1
1
1
1
1
1
1
1
1
1
1
1
1
1
1
1
1
1
1
1
1
1
1
1
1
1
1
1
1
1
1
1
1
1
1
1
1
1
1
1
1
1
1
1
1.00244
1.33072
4.00569
1
1
1
1
1
1
1
1
1
1
1
1
1
1
1
1
1
1
1
1
1
1
1
1
1
1
1
1
1
1
1
1
1
1
1
1
1
1
1
1
1
1
1
1
1
1.00001
1.01109
1.6867
1
1
1
1
1
1
1
1
1
1
1
1
1
1
1
1
1
1
1
1
1
1
1
1
1
1
1
1
1
1
1
1
1
1
1
1
1
1
1
1
1
1
1
1
1
1
1.00009
1.03895
1
1
1
1
1
1
1
1
1
1
1
1
1
1
1
1
1
1
1
1
1
1
1
1
1
1
1
1
1
1
1
1
1
1
1
1
1
1
1
1
1
1
1
1
1
1
1
1.00049
1
1
1
1
1
1
1
1
1
1
1
1
1
1
1
1
1
1
1
1
1
1
1
1
1
1
1
1
1
1
1
1
1
1
1
1
1
1
1
1
1
1
1
1
1
1
1
1
1
1
1
1
1
1
1
1
1
1
1
1
1
1
1
1
1
1
1
1
1
1
1
1
1
1
1
1
1
1
1
1
1
1
1
1
1
1
1
1
1
1
1
1
1
1
1
1
1
1
1
1
1
1
1
1
1
1
1
1
1
1
1
1
1
1
1
1
1
1
1
1
1
1
1
1
1
1
1
1
1
1
1
1
1
1
1
1
1
1
1
1
1
1
1
1
1
1
1
1
1
1
1
1
1
1
1
1
1
1
1
1
1
1
1
1
1
1
1
1
1
1
1
1
1
1
1
1
1
1
1
1
1
1
1
1
1
1
1
1
1
1
1
1
1
1
1
1
1
1
1
1
1
1
1
1
1
1
1
1
1
1
1
1
1
1
1
1
1
1
1
1
1
1
1
1
1
1
1
1
1
1
1
1
1
1
1
1
1
1
1
1
1
1
1
1
1
1
1
1
1
1
1
1
1
1
1
1
1
1
1
1
1
1
1
1
1
1
1
1
1
1
1
1
1
1
1
1
1
1
1
1
1
1
1
1
1
1
1
1
1
1
1
1
1
1
1
1
1
1
1
1
1
1
1
1
1
1
1
1
1
1
1
1
1
1
1
1
1
1
1
1
1
1
1
1
1
1
1
1
1
1
1
1
1
1
1
1
1
1
1
1
1
1
1
1
1
1
1
1
1
1
1
1
1
1
1
1
1
1
1
1
1
1
1
1
1
1
1
1
1
1
1
1
1
1
1
1
1
1
1
1
1
1
1
1
1
1
1
1
1
1
1
1
1
1
1
1
1
1
1
1
1
1
1
1
1
1
1
1
1
1
1
1
1
1
1
1
1
1
1
1
1
1
1
1
1
1
1
1
1
1
1
1
1
1
1
1
1
1
1
1
1
1
1
1
1
1
1
1
1
1
1
1
1
1
1
1
1
1
1
1
1
1
1
1
1
1
1
1
1
1
1
1
1
1
1
1
1
1
1
1
1
1
1
1
1
1
1
1
1
1
1
1
1
1
1
1
1
1
1
1
1
1
1
1
1
1
1
1
1
1
1
1
1
1
1
1
1
1
1
1
1
1
1
1
1
1
1
1
1
1
1
1
1
1
1
1
1
1
1
1
1
1
1
1
1
1
1
1
1
1
1
1
1
1
1
1
1
1
1
1
1
1
1
1
1
1
1
1
1
1
1
1
1
1
1
1
1
1
1
1
1
1
1
1
1
1
1
1
1
1
1
1
1
1
1
1
1
1
1
1
1
1
1
1
1
1
1
1
1
1
1
1
1
1
1
1
1
1
1
1
1
1
1
1
1
1
1
1
1
1
1
1
1
1
1
1
1
1
1
1
1
1
1
1
1
1
1
1
1
1
1
1
1
1
1
1
1
1
1
1
1
1
1
1
1
1
1
1
1
1
1
1
1
1
1
1
1
1
1
1
1
1
1
1
1
1
1
1
1
1
1
1
1
1
1
1
1
1
1
1
1
1
1
1
1
1
1
1
1
1
1
1
1
1
1
1
1
1
1
1
1
1
1
1
1
1
1
1
1
1
1
1
1
1
1
1
1
1
1
1
1
1
1
1
1
1
1
1
1
1
1
1
1
1
1
1
1
1
1
1
1
1
1
1
1
1
1
1
1
1
1
1
1
1
1
1
1
1
1
1
1
1
1
1
1
1
1
1
1
1
1
1
1
1
1
1
1
1
1
1
1
1
1
1
1
1
1
1
1
1
1
1
1
1
1
1
1.20924
0.2852
0.047806
0.0136556
0.0247074
0.0673163
0.109194
0.134699
0.183961
0.286716
0.378662
0.455518
0.530919
0.590491
0.644266
0.706969
0.776996
0.847678
0.899965
0.926022
0.960219
0.996226
1.00464
1.0082
1.01461
1.01815
1.0144
1.03861
1.10271
1.14664
1.15993
1.16557
1.1645
1.16356
1.16258
1.17242
1.19908
1.21705
1.22832
1.23171
1.23433
1.24572
1.26589
1.27553
1.28068
1.28611
1.28939
1.29141
1.291
1.28805
1.28758
1.28975
1.29546
1.30644
1.31614
1.32123
1.32178
1.31733
1.30867
1.29583
1.28935
1.28877
1.29224
1.30509
1.31915
1.31964
1.31653
1.30978
1.29796
1.28838
1.2838
1.28158
1.28674
1.29922
1.30341
1.30191
1.29673
1.28641
1.27579
1.27684
1.33246
1.69458
2.79567
4.79788
6.92996
7.24926
6.72203
6.40419
6.37307
6.28992
6.19003
6.05987
5.94986
5.84752
5.76531
5.69301
5.63744
5.60538
5.56127
5.49853
5.43503
5.37128
5.30014
5.228
5.15422
5.07785
5.00702
4.94614
4.89254
4.85187
4.81457
4.76594
4.71465
4.65883
4.59862
4.53764
4.48153
4.43331
4.39176
4.35533
4.32336
4.29429
4.26964
4.24594
4.21566
4.17594
4.11348
4.03099
3.96204
3.91234
3.87305
3.84052
3.81054
3.78378
3.7627
3.74618
3.72347
3.69107
3.65279
3.60053
3.53616
3.48318
3.44997
3.42479
3.40268
3.38824
3.38189
3.36297
3.33169
3.29492
3.24198
3.18087
3.13158
3.09512
3.06717
3.04597
3.02922
3.01399
2.99655
2.96503
2.91586
2.8801
2.86487
2.85455
2.84588
2.83367
2.81553
2.78026
2.71846
2.67013
2.64971
2.63496
2.62258
2.61249
2.59633
2.57686
2.54907
2.51708
2.49874
2.48514
2.47272
2.46349
2.45106
2.43196
2.40143
2.34866
2.29819
2.27197
2.25475
2.23973
2.23096
2.22171
2.14169
1.07072
0.552434
0.259634
0.202222
0.235396
0.238526
0.216359
0.213634
0.220296
0.246187
0.280125
0.323479
0.381068
0.449987
0.529774
0.616193
0.673466
0.728161
0.793314
0.865216
0.920812
0.939294
0.958241
0.985461
1.01422
1.02763
1.0453
1.08687
1.11513
1.12676
1.13616
1.13927
1.14179
1.1508
1.16426
1.18454
1.20641
1.22309
1.23264
1.23514
1.24114
1.25573
1.26439
1.26826
1.27213
1.27644
1.28273
1.28912
1.29054
1.28949
1.28876
1.29052
1.29462
1.29903
1.30446
1.31101
1.3131
1.31014
1.30629
1.30205
1.29794
1.29653
1.29939
1.30463
1.30698
1.30536
1.30169
1.29745
1.29453
1.29089
1.28852
1.29154
1.29673
1.2972
1.29556
1.29
1.27703
1.27734
1.32832
1.67908
2.38881
2.94917
3.63279
5.09955
6.13779
6.35331
6.34108
6.31273
6.20822
6.11183
6.03105
5.95634
5.88126
5.79498
5.70732
5.63528
5.58148
5.53208
5.4772
5.42082
5.35945
5.29011
5.21949
5.1466
5.07283
5.01035
4.95511
4.90661
4.87069
4.83163
4.78113
4.72696
4.66748
4.60239
4.53777
4.48314
4.43913
4.40126
4.36577
4.33015
4.2944
4.26092
4.22718
4.18942
4.14633
4.097
4.04109
3.98974
3.94105
3.89281
3.85079
3.81786
3.7889
3.76226
3.73559
3.70731
3.67913
3.64568
3.60316
3.5534
3.50266
3.45739
3.42384
3.39901
3.37804
3.36157
3.34755
3.32564
3.2935
3.25368
3.20885
3.16255
3.11852
3.08135
3.05226
3.02793
3.00498
2.98268
2.95857
2.92603
2.88906
2.86171
2.8451
2.83381
2.82479
2.80944
2.78214
2.73995
2.69382
2.65941
2.63784
2.62132
2.60532
2.5895
2.57177
2.55035
2.52283
2.49868
2.48318
2.46966
2.45731
2.44429
2.42609
2.40028
2.36203
2.317
2.28254
2.26293
2.24781
2.23847
2.22255
2.93038
1.65683
1.13968
0.821282
0.590314
0.479797
0.42746
0.356307
0.325029
0.327989
0.326391
0.317015
0.322951
0.35529
0.400902
0.432273
0.467352
0.520797
0.582393
0.651034
0.723122
0.801033
0.861576
0.904876
0.95189
1.01459
1.05844
1.07471
1.09486
1.10796
1.11857
1.1346
1.14618
1.15153
1.16109
1.17018
1.17752
1.18971
1.20853
1.22805
1.23881
1.24732
1.25975
1.26841
1.27197
1.2737
1.27435
1.27683
1.28155
1.28827
1.29865
1.30974
1.31432
1.3149
1.31166
1.30471
1.29879
1.2972
1.29772
1.29969
1.30284
1.30767
1.31376
1.31554
1.31355
1.30927
1.30137
1.29156
1.28776
1.28677
1.28862
1.29422
1.30024
1.30024
1.29885
1.2948
1.28501
1.28939
1.35538
1.70129
2.47662
3.00961
3.05127
3.04404
3.53103
4.76027
5.99216
6.49622
6.35878
6.24209
6.10334
6.00272
5.93726
5.8751
5.8091
5.73747
5.66361
5.58946
5.52189
5.46326
5.41333
5.35813
5.29218
5.2232
5.14501
5.05806
4.98733
4.93677
4.89656
4.86757
4.83233
4.78868
4.74225
4.68803
4.62017
4.5415
4.47659
4.43785
4.40738
4.37864
4.34904
4.31476
4.27178
4.21798
4.15735
4.0982
4.04931
4.01827
3.9884
3.95718
3.92056
3.87835
3.83789
3.80233
3.76698
3.72949
3.69175
3.65443
3.61942
3.58759
3.55686
3.52566
3.4883
3.44394
3.40023
3.36738
3.34171
3.31511
3.28795
3.26462
3.24209
3.21679
3.18943
3.15719
3.11813
3.07454
3.03247
2.99658
2.96543
2.93913
2.91902
2.89768
2.87154
2.84416
2.81967
2.7966
2.7768
2.75989
2.74212
2.72046
2.69359
2.66173
2.62907
2.602
2.58079
2.56221
2.5439
2.52324
2.50106
2.48123
2.46388
2.44738
2.42918
2.40836
2.3848
2.36013
2.33558
2.30964
2.28336
2.2598
2.24213
2.21828
3.50169
2.4024
1.7538
1.31343
1.00616
0.840359
0.73961
0.606927
0.518295
0.502943
0.503309
0.484871
0.444408
0.423187
0.422994
0.426535
0.430423
0.444845
0.4687
0.495092
0.535228
0.599657
0.688847
0.771733
0.833252
0.904134
0.976605
1.00822
1.03762
1.06627
1.08517
1.10894
1.13708
1.14658
1.15634
1.16898
1.17457
1.18501
1.20316
1.22313
1.23768
1.24773
1.25469
1.2583
1.25911
1.25807
1.25783
1.25905
1.26142
1.26731
1.28037
1.29911
1.30737
1.31036
1.31287
1.31104
1.3029
1.29637
1.29405
1.29315
1.2941
1.29844
1.30338
1.30597
1.30692
1.30602
1.30229
1.29729
1.29385
1.29236
1.29262
1.29505
1.29401
1.29082
1.28827
1.28589
1.30057
1.39168
1.787
2.52082
3.01163
3.11511
3.11178
3.09383
3.10155
3.39126
4.40601
5.65948
6.00367
6.20005
6.10066
6.00625
5.91866
5.848
5.79955
5.73696
5.66909
5.58903
5.50987
5.44658
5.38867
5.33625
5.28092
5.22364
5.16176
5.08744
5.00652
4.94537
4.90342
4.86455
4.82302
4.78089
4.73776
4.68984
4.63095
4.55552
4.47571
4.42273
4.39007
4.36156
4.33586
4.30777
4.27224
4.22174
4.15144
4.08527
4.04639
4.0169
3.98922
3.96075
3.92953
3.89119
3.84249
3.79402
3.75475
3.71912
3.68352
3.64749
3.61405
3.5848
3.55782
3.53087
3.50094
3.46316
3.41617
3.36702
3.32296
3.2871
3.25998
3.23807
3.2202
3.20409
3.18587
3.16513
3.13869
3.10293
3.05756
3.0063
2.95949
2.92909
2.91116
2.89603
2.87834
2.85165
2.81246
2.77506
2.75004
2.73499
2.72544
2.71808
2.70488
2.68568
2.65852
2.6223
2.58469
2.55517
2.53395
2.5161
2.49878
2.48066
2.46066
2.43792
2.41327
2.38948
2.37058
2.35643
2.34398
2.32877
2.30929
2.28202
2.2532
2.21497
3.96037
3.01021
2.38139
1.86788
1.43039
1.22743
1.10214
0.956431
0.75529
0.663617
0.67019
0.658067
0.600766
0.543014
0.540359
0.529854
0.50011
0.497795
0.507358
0.511073
0.50398
0.503473
0.516846
0.553092
0.610582
0.694887
0.815598
0.906002
0.955428
1.0036
1.03232
1.05627
1.09012
1.10164
1.11859
1.1389
1.15076
1.16708
1.19508
1.23288
1.25528
1.26012
1.26223
1.26151
1.25945
1.25639
1.25342
1.25107
1.25207
1.25913
1.2744
1.29775
1.31032
1.31361
1.31511
1.31171
1.30113
1.29274
1.2905
1.29086
1.29389
1.29971
1.30164
1.30203
1.30242
1.30207
1.30254
1.30339
1.30293
1.30092
1.2974
1.29389
1.28913
1.28621
1.28425
1.30004
1.41925
1.90198
2.59065
3.02859
3.16592
3.18324
3.17749
3.13195
3.06531
3.03736
3.17976
3.95605
5.06198
5.79291
5.92738
6.00874
5.96146
5.89045
5.82119
5.73364
5.65866
5.5815
5.49683
5.42337
5.36572
5.31097
5.26169
5.21118
5.15865
5.10125
5.03495
4.9693
4.91271
4.86304
4.81696
4.77218
4.72718
4.6803
4.62856
4.56777
4.49728
4.43073
4.38391
4.34972
4.31713
4.28344
4.24468
4.19531
4.13708
4.089
4.05433
4.02529
3.99978
3.97383
3.94391
3.90365
3.8438
3.7753
3.7245
3.68888
3.65837
3.63181
3.60839
3.58514
3.56129
3.53617
3.50797
3.47331
3.4286
3.37522
3.32275
3.2812
3.25038
3.22634
3.20646
3.18812
3.16965
3.14963
3.12661
3.09872
3.06495
3.02649
2.98589
2.94762
2.91825
2.89775
2.87864
2.85276
2.81144
2.76435
2.73752
2.72409
2.71262
2.70321
2.69671
2.68414
2.66613
2.64277
2.6092
2.56837
2.53215
2.50671
2.48769
2.46981
2.44989
2.42598
2.40082
2.38252
2.36924
2.35828
2.34738
2.33316
2.31735
2.2954
2.26537
2.21313
4.32457
3.49718
2.86922
2.37172
1.95722
1.61646
1.39158
1.26129
1.12664
0.955442
0.827967
0.809022
0.772946
0.699054
0.674969
0.665479
0.623451
0.593976
0.586837
0.574907
0.554062
0.534932
0.533464
0.533699
0.537023
0.554768
0.603801
0.6745
0.730204
0.793261
0.864072
0.926204
0.999343
1.04792
1.07977
1.1085
1.12374
1.14197
1.16967
1.21147
1.23713
1.24219
1.24347
1.24335
1.24296
1.24242
1.24511
1.25207
1.25495
1.2595
1.27026
1.28766
1.29695
1.29905
1.29969
1.29528
1.28971
1.28851
1.29014
1.29598
1.30785
1.31371
1.31332
1.31078
1.30648
1.3011
1.29559
1.29201
1.29108
1.2908
1.29137
1.29379
1.2941
1.2926
1.30685
1.44645
2.0063
2.71913
3.03997
3.20256
3.22651
3.21618
3.16504
3.09728
3.04778
3.02006
3.00917
3.09755
3.56899
4.54307
5.37139
5.78938
5.84834
5.89184
5.84722
5.76924
5.67159
5.57958
5.48194
5.38837
5.33008
5.28011
5.24085
5.2042
5.15819
5.11096
5.05799
4.99517
4.92617
4.86414
4.8123
4.76462
4.71757
4.6707
4.62314
4.57138
4.51131
4.44404
4.38069
4.33459
4.29767
4.26115
4.22281
4.18132
4.14211
4.10788
4.07405
4.04208
4.01204
3.98132
3.94479
3.89464
3.83244
3.76683
3.71273
3.67651
3.64961
3.62541
3.6036
3.5833
3.56087
3.53691
3.50999
3.47496
3.4306
3.38298
3.3375
3.29518
3.25607
3.22132
3.19188
3.16806
3.14773
3.12685
3.10436
3.08133
3.05931
3.03819
3.01425
2.98206
2.94138
2.90336
2.87328
2.84255
2.80346
2.7629
2.73811
2.72368
2.71021
2.6974
2.68721
2.67685
2.66141
2.6432
2.62012
2.58606
2.54276
2.50398
2.47534
2.45222
2.43032
2.40925
2.39384
2.38197
2.37142
2.36235
2.35085
2.33755
2.32287
2.30156
2.2712
2.21235
4.60723
3.90797
3.3111
2.76965
2.37748
2.05139
1.75009
1.51474
1.40136
1.24841
1.05619
0.976579
0.950465
0.889568
0.815744
0.790251
0.754241
0.697294
0.686449
0.682743
0.659976
0.621228
0.608002
0.598494
0.579699
0.577916
0.585286
0.589911
0.593806
0.607389
0.644446
0.705866
0.792861
0.897406
0.967576
1.0281
1.06437
1.09028
1.12029
1.17003
1.2116
1.22199
1.2225
1.2232
1.22815
1.23199
1.23792
1.24857
1.25531
1.25844
1.26477
1.2762
1.27908
1.28201
1.28495
1.28373
1.27921
1.28006
1.28819
1.30494
1.31515
1.31608
1.3143
1.30684
1.2991
1.29298
1.2872
1.28506
1.28445
1.2861
1.29264
1.29633
1.29845
1.32013
1.48249
2.08397
2.82084
3.09664
3.22959
3.24959
3.22104
3.17267
3.11373
3.07166
3.04609
3.04161
3.03363
3.004
3.01944
3.23292
3.95799
4.89773
5.51933
5.7031
5.77314
5.77934
5.70145
5.59962
5.49644
5.38768
5.31301
5.26211
5.22498
5.1967
5.15494
5.10804
5.05874
5.0017
4.93536
4.86663
4.80795
4.75716
4.70784
4.65869
4.60968
4.55974
4.50748
4.45179
4.39041
4.3297
4.28248
4.2453
4.21194
4.18246
4.15418
4.1243
4.09267
4.05615
4.01187
3.9617
3.91109
3.86217
3.81448
3.76622
3.7166
3.67267
3.64173
3.61834
3.598
3.58082
3.55976
3.53509
3.50519
3.46548
3.42175
3.38349
3.34901
3.31359
3.27479
3.23291
3.19032
3.15028
3.11747
3.09475
3.07761
3.06387
3.05245
3.04223
3.02881
3.00968
2.9752
2.92192
2.86895
2.82826
2.79573
2.76813
2.74309
2.72118
2.70455
2.69017
2.67754
2.66666
2.65422
2.63849
2.6192
2.59119
2.55188
2.5087
2.46863
2.43557
2.4136
2.40089
2.39087
2.38196
2.3732
2.36305
2.3517
2.33821
2.31822
2.29173
2.26363
2.21404
4.82676
4.22168
3.64532
3.12144
2.74936
2.41179
2.06948
1.79622
1.65025
1.50961
1.32043
1.15157
1.11769
1.07709
1.00545
0.961096
0.917808
0.833818
0.78842
0.787288
0.774345
0.729192
0.685999
0.672063
0.654798
0.629716
0.623212
0.621489
0.612088
0.606539
0.610013
0.618285
0.637819
0.681037
0.735821
0.795682
0.870001
0.933264
0.996379
1.06028
1.12943
1.18129
1.18881
1.19416
1.20447
1.21237
1.2226
1.24001
1.25485
1.26194
1.26614
1.26733
1.26411
1.25991
1.26102
1.26403
1.26664
1.27041
1.28301
1.30222
1.31078
1.31234
1.31191
1.30559
1.29522
1.28793
1.28449
1.28325
1.28325
1.2888
1.29429
1.29561
1.32973
1.57096
2.14491
2.89738
3.15304
3.23761
3.26335
3.24701
3.1912
3.13004
3.08282
3.06904
3.06263
3.05854
3.02707
2.9871
2.95486
2.92922
3.01438
3.44305
4.35417
5.09997
5.58908
5.68421
5.66861
5.60031
5.52055
5.43612
5.34947
5.27262
5.21551
5.16644
5.12327
5.08413
5.04038
4.99403
4.93933
4.87159
4.80569
4.74985
4.69789
4.64516
4.59143
4.54172
4.49798
4.4549
4.40671
4.34833
4.28911
4.24585
4.21093
4.18024
4.15177
4.12042
4.08743
4.04875
3.99275
3.92925
3.87906
3.84102
3.80826
3.77569
3.73852
3.69437
3.65086
3.62037
3.59979
3.58613
3.5628
3.53253
3.49466
3.45155
3.41374
3.38321
3.35503
3.32564
3.29221
3.25285
3.2062
3.15467
3.10767
3.07563
3.05964
3.05226
3.05366
3.05002
3.03678
3.01706
2.98446
2.93582
2.8756
2.82699
2.79657
2.77353
2.75055
2.72555
2.70265
2.68631
2.6736
2.66657
2.65243
2.63308
2.60936
2.57979
2.54666
2.51361
2.47797
2.44169
2.41603
2.40229
2.39271
2.38577
2.38023
2.36862
2.34891
2.32127
2.29501
2.27279
2.25309
2.21936
5.02236
4.46946
3.91883
3.4404
3.05209
2.7104
2.38605
2.10739
1.87372
1.7207
1.58475
1.42242
1.31487
1.2423
1.15436
1.10348
1.07248
1.01225
0.917792
0.876932
0.86521
0.840379
0.791657
0.761066
0.749345
0.723901
0.701683
0.691914
0.679601
0.663574
0.653558
0.641997
0.640647
0.642814
0.647949
0.655348
0.673005
0.70833
0.768281
0.859332
0.950673
1.04582
1.11056
1.1533
1.17158
1.17713
1.18965
1.2128
1.24358
1.26333
1.27214
1.27512
1.27116
1.25439
1.24848
1.25141
1.25486
1.26124
1.27681
1.29226
1.2969
1.30043
1.30251
1.29927
1.29015
1.28646
1.28639
1.28652
1.28836
1.29126
1.29245
1.33072
1.64274
2.34839
2.90221
3.20476
3.22453
3.23534
3.22598
3.20511
3.18196
3.13952
3.10399
3.08729
3.06738
3.03669
3.00016
2.96941
2.93939
2.92032
2.89395
2.9115
3.13164
3.74915
4.68087
5.23358
5.51476
5.55373
5.54947
5.48055
5.3982
5.3093
5.21796
5.14547
5.09884
5.05979
5.02133
4.97802
4.92897
4.86944
4.80168
4.74178
4.68943
4.63821
4.58757
4.54142
4.4992
4.45893
4.418
4.37133
4.3156
4.25609
4.20783
4.17045
4.13848
4.10884
4.07296
4.02478
3.96276
3.89857
3.8555
3.82972
3.80713
3.78613
3.76136
3.73237
3.69504
3.64561
3.59172
3.54903
3.52164
3.49254
3.46061
3.43154
3.40584
3.38059
3.35509
3.32845
3.29881
3.26444
3.2231
3.1748
3.12542
3.08376
3.0528
3.03219
3.01653
3.00666
3.00024
2.98747
2.96741
2.93456
2.8909
2.8488
2.81385
2.78544
2.76171
2.74031
2.71941
2.69838
2.67401
2.64218
2.61601
2.59409
2.57317
2.55345
2.5355
2.51662
2.49591
2.473
2.44869
2.42587
2.40711
2.38869
2.36529
2.34125
2.31767
2.296
2.27881
2.26306
2.25137
2.22993
5.17322
4.65989
4.14598
3.7162
3.33933
2.96895
2.64082
2.40073
2.16003
1.93344
1.79416
1.66838
1.53346
1.43727
1.34384
1.24437
1.19501
1.14825
1.075
0.985681
0.953043
0.942009
0.914081
0.868883
0.838997
0.821604
0.795043
0.765196
0.746657
0.73151
0.715499
0.697291
0.673116
0.661087
0.660893
0.656492
0.657079
0.662334
0.673113
0.694685
0.731561
0.785532
0.862904
0.944249
1.03004
1.08034
1.12421
1.16176
1.20777
1.25274
1.26409
1.26671
1.26533
1.25608
1.24501
1.24386
1.24791
1.26098
1.27785
1.28406
1.28386
1.28153
1.27722
1.27282
1.27273
1.27532
1.28076
1.29038
1.2979
1.30181
1.34844
1.67614
2.48883
3.00127
3.19665
3.22113
3.20275
3.20242
3.1984
3.18522
3.17446
3.15998
3.12265
3.08396
3.05066
3.01213
2.97578
2.95327
2.93724
2.91923
2.89428
2.87136
2.84467
2.91009
3.28893
4.04103
4.86372
5.21839
5.40769
5.44151
5.41052
5.32772
5.22854
5.13582
5.06486
5.02346
4.99072
4.95842
4.91472
4.86119
4.78949
4.72299
4.67854
4.64031
4.60255
4.55967
4.51163
4.46329
4.41877
4.37559
4.32563
4.26754
4.21199
4.1645
4.12208
4.08023
4.03863
3.99345
3.93755
3.87979
3.8475
3.82383
3.80417
3.79096
3.77768
3.75574
3.72582
3.67578
3.5991
3.52887
3.48479
3.45903
3.43836
3.41972
3.39898
3.3753
3.34748
3.31915
3.29433
3.2681
3.23357
3.19475
3.15091
3.10271
3.0565
3.02107
2.9987
2.98211
2.96598
2.95068
2.9333
2.9141
2.89498
2.87341
2.84694
2.81652
2.78688
2.76116
2.73506
2.70046
2.65621
2.6155
2.58607
2.5652
2.54965
2.53847
2.53043
2.52268
2.51216
2.49931
2.47947
2.4473
2.4065
2.36888
2.33769
2.31132
2.29129
2.27677
2.26647
2.2569
2.25233
2.23802
5.30196
4.82608
4.3557
3.95461
3.58071
3.20576
2.90158
2.64217
2.41029
2.17847
2.02604
1.88287