/*--------------------------------*- C++ -*----------------------------------*\
  =========                 |
  \\      /  F ield         | OpenFOAM: The Open Source CFD Toolbox
   \\    /   O peration     | Website:  https://openfoam.org
    \\  /    A nd           | Version:  7
     \\/     M anipulation  |
\*---------------------------------------------------------------------------*/
FoamFile
{
    version     2.0;
    format      ascii;
    class       volScalarField;
    location    "2.1";
    object      T;
}
// * * * * * * * * * * * * * * * * * * * * * * * * * * * * * * * * * * * * * //

dimensions      [0 0 0 1 0 0 0];

internalField   nonuniform List<scalar> 
16128
(
1
1
1
1
1
1
1
1
1
1
1
1
1
1
1
1
1
1
1
1
1
1
1
1
1.43135
2.54408
2.71038
2.71418
2.72324
2.73276
2.742
2.74958
2.75493
2.75829
2.76097
2.76461
2.77048
2.7788
2.78816
2.79654
2.80296
2.80799
2.81312
2.81984
2.82841
2.83721
2.844
2.84683
1
1
1
1
1
1
1
1
1
1
1
1
1
1
1
1
1
1
1
1
1
1
1
1
1.41559
2.53643
2.70968
2.71439
2.72338
2.73274
2.74186
2.74938
2.75466
2.75792
2.76049
2.76405
2.76992
2.77828
2.78766
2.796
2.80234
2.80729
2.81238
2.81907
2.82757
2.83626
2.84299
2.84581
1
1
1
1
1
1
1
1
1
1
1
1
1
1
1
1
1
1
1
1
1
1
1
1
1.37763
2.51904
2.70791
2.71356
2.7228
2.73214
2.74125
2.74874
2.75394
2.75708
2.75953
2.76304
2.76894
2.77744
2.78697
2.79535
2.80163
2.80646
2.81145
2.81808
2.82642
2.83484
2.84143
2.84418
1
1
1
1
1
1
1
1
1
1
1
1
1
1
1
1
1
1
1
1
1
1
1
1
1.32465
2.49276
2.70449
2.71159
2.72163
2.73131
2.74056
2.74794
2.75292
2.75588
2.75817
2.76158
2.7675
2.77611
2.78574
2.79414
2.80034
2.80506
2.80997
2.81657
2.82473
2.83282
2.83917
2.84181
1
1
1
1
1
1
1
1
1
1
1
1
1
1
1
1
1
1
1
1
1
1
1
1
1.25786
2.45637
2.69944
2.70847
2.71978
2.73015
2.73967
2.74691
2.75157
2.75428
2.75652
2.75997
2.76597
2.77464
2.78426
2.79254
2.79855
2.80308
2.80784
2.81434
2.82231
2.83017
2.83629
2.83885
1
1
1
1
1
1
1
1
1
1
1
1
1
1
1
1
1
1
1
1
1
1
1
1
1.17543
2.40627
2.6935
2.70467
2.71748
2.72833
2.73788
2.74494
2.74951
2.75226
2.75462
2.75814
2.76413
2.77269
2.78214
2.79019
2.79593
2.8002
2.80479
2.81115
2.819
2.82687
2.83289
2.83545
1
1
1
1
1
1
1
1
1
1
1
1
1
1
1
1
1
1
1
1
1
1
1
1
1.07831
2.34526
2.68795
2.70185
2.71583
2.7272
2.73665
2.74354
2.74793
2.75057
2.75282
2.75617
2.76181
2.76992
2.77895
2.78673
2.79233
2.79654
2.80106
2.80723
2.81483
2.82262
2.8285
2.83102
1
1
1
1
1
1
1
1
1
1
1
1
1
1
1
1
1
1
1
1
1
1
1
1
1.00337
2.27198
2.6844
2.70002
2.71257
2.72351
2.73234
2.73891
2.74339
2.74646
2.74918
2.75289
2.75869
2.76671
2.77551
2.78299
2.78827
2.79213
2.79631
2.80212
2.80942
2.81716
2.82301
2.82551
1
1
1
1
1
1
1
1
1
1
1
1
1
1
1
1
1
1
1
1
1
1
1
1
1.00002
2.18051
2.67916
2.69982
2.71128
2.72182
2.73013
2.73638
2.74064
2.74359
2.74626
2.74986
2.7554
2.76299
2.77126
2.77827
2.78312
2.78656
2.7903
2.79567
2.80271
2.81056
2.81661
2.81931
1
1
1
1
1
1
1
1
1
1
1
1
1
1
1
1
1
1
1
1
1
1
1
1
1
2.06231
2.66592
2.69625
2.7081
2.71861
2.7269
2.73305
2.73712
2.73989
2.74243
2.74586
2.75111
2.75821
2.76594
2.77247
2.77691
2.77996
2.78329
2.78822
2.79483
2.80252
2.80858
2.81123
1
1
1
1
1
1
1
1
1
1
1
1
1
1
1
1
1
1
1
1
1
1
1
1
1
1.91589
2.63856
2.68692
2.70153
2.71355
2.72296
2.72931
2.73311
2.73545
2.73755
2.7405
2.74523
2.75173
2.75894
2.76511
2.76921
2.77181
2.77459
2.77872
2.7846
2.79225
2.79854
2.80151
1
1
1
1
1
1
1
1
1
1
1
1
1
1
1
1
1
1
1
1
1
1
1
1
1
1.74987
2.5941
2.67341
2.68998
2.70436
2.71574
2.72356
2.72802
2.7303
2.732
2.73435
2.73841
2.74429
2.75097
2.75675
2.76043
2.76249
2.76461
2.76785
2.773
2.77984
2.78544
2.78759
1
1
1
1
1
1
1
1
1
1
1
1
1
1
1
1
1
1
1
1
1
1
1
1
1
1.5273
2.51105
2.65834
2.67482
2.69079
2.70354
2.71366
2.71992
2.72295
2.72464
2.72651
2.72989
2.73519
2.74144
2.74691
2.75026
2.75177
2.75271
2.75396
2.75724
2.76272
2.76753
2.77036
1
1
1
1
1
1
1
1
1
1
1
1
1
1
1
1
1
1
1
1
1
1
1
1
1
1.24164
2.41097
2.65914
2.65787
2.67044
2.68501
2.6986
2.70793
2.71288
2.71531
2.71704
2.71996
2.72474
2.73036
2.73565
2.73862
2.73916
2.73858
2.73823
2.73963
2.74302
2.74453
2.74147
1
1
1
1
1
1
1
1
1
1
1
1
1
1
1
1
1
1
1
1
1
1
1
1
1
1.01634
2.31526
2.65733
2.65244
2.65995
2.66993
2.68196
2.69249
2.69943
2.70313
2.70521
2.7079
2.71209
2.71709
2.7221
2.7247
2.72438
2.72242
2.71948
2.716
2.71185
2.70726
2.70161
1
1
1
1
1
1
1
1
1
1
1
1
1
1
1
1
1
1
1
1
1
1
1
1
1
1.00007
2.17006
2.6507
2.65063
2.65431
2.66013
2.66872
2.67785
2.68496
2.68935
2.69196
2.69453
2.69771
2.70198
2.70638
2.70851
2.70736
2.70339
2.69645
2.68727
2.67815
2.67225
2.67797
1
1
1
1
1
1
1
1
1
1
1
1
1
1
1
1
1
1
1
1
1
1
1
1
1
1
1.97226
2.62835
2.65049
2.65552
2.66067
2.66484
2.66963
2.674
2.677
2.67898
2.68078
2.68233
2.68532
2.68851
2.68975
2.68779
2.68187
2.67146
2.65535
2.62986
2.57235
2.45249
1
1
1
1
1
1
1
1
1
1
1
1
1
1
1
1
1
1
1
1
1
1
1
1
1
1
1.69021
2.54155
2.63704
2.64878
2.65643
2.66104
2.66481
2.66739
2.66809
2.66817
2.66825
2.66749
2.66818
2.6692
2.66886
2.66577
2.65773
2.64271
2.61792
2.57282
2.50293
2.31557
1
1
1
1
1
1
1
1
1
1
1
1
1
1
1
1
1
1
1
1
1
1
1
1
1
1
1.30818
2.40081
2.62646
2.63373
2.64362
2.65215
2.65773
2.66071
2.66051
2.65934
2.65702
2.6541
2.65168
2.64978
2.64716
2.64198
2.6317
2.61279
2.58174
2.52882
2.43871
2.24361
1
1
1
1
1
1
1
1
1
1
1
1
1
1
1
1
1
1
1
1
1
1
1
1
1
1
1.02623
2.2716
2.62031
2.61619
2.62398
2.63544
2.64465
2.65087
2.65208
2.6508
2.64725
2.64241
2.6368
2.63129
2.62543
2.61737
2.6044
2.58262
2.54687
2.49232
2.38926
2.21981
1
1
1
1
1
1
1
1
1
1
1
1
1
1
1
1
1
1
1
1
1
1
1
1
1
1
1.00013
2.07026
2.59029
2.6032
2.61106
2.61903
2.62784
2.63651
2.6407
2.64033
2.63707
2.6312
2.62342
2.6146
2.60516
2.59379
2.57784
2.55368
2.51601
2.46041
2.35998
2.22841
1
1
1
1
1
1
1
1
1
1
1
1
1
1
1
1
1
1
1
1
1
1
1
1
1
1
0.999999
1.74019
2.52509
2.59199
2.59855
2.60391
2.61114
2.61963
2.62588
2.62732
2.62502
2.61934
2.61057
2.59948
2.58676
2.57198
2.55309
2.52685
2.48887
2.4327
2.34436
2.23895
1
1
1
1
1
1
1
1
1
1
1
1
1
1
1
1
1
1
1
1
1
1
1
1
1
1
1
1.29188
2.39165
2.58781
2.58473
2.58831
2.59328
2.6001
2.60709
2.61087
2.60987
2.60546
2.59711
2.58522
2.57047
2.55294
2.5315
2.50354
2.46579
2.41077
2.33527
2.24922
1
1
1
1
1
1
1
1
1
1
1
1
1
1
1
1
1
1
1
1
1
1
1
1
1
1
1
1.02159
2.24666
2.57445
2.57016
2.57308
2.57605
2.58061
2.58657
2.59136
2.59151
2.58868
2.58165
2.57028
2.55502
2.53609
2.5129
2.48375
2.44645
2.39451
2.33036
2.25643
1
1
1
1
1
1
1
1
1
1
1
1
1
1
1
1
1
1
1
1
1
1
1
1
1
1
1
1.00006
1.96401
2.53697
2.56219
2.56353
2.56383
2.5656
2.56903
2.57267
2.57305
2.5708
2.56482
2.55447
2.53976
2.52072
2.49699
2.46752
2.43033
2.38269
2.32712
2.26259
1
1
1
1
1
1
1
1
1
1
1
1
1
1
1
1
1
1
1
1
1
1
1
1
1
1
1
1
1.49984
2.43179
2.55083
2.55067
2.55166
2.55185
2.55268
2.55401
2.5538
2.55153
2.54616
2.53696
2.52348
2.50548
2.48243
2.45381
2.41729
2.37404
2.32509
2.26702
1
1
1
1
1
1
1
1
1
1
1
1
1
1
1
1
1
1
1
1
1
1
1
1
1
1
1
1
1.06405
2.26014
2.54497
2.5387
2.53934
2.53853
2.53771
2.53704
2.53576
2.53286
2.52754
2.5191
2.50674
2.49015
2.46812
2.4409
2.4063
2.36716
2.32327
2.27104
1
1
1
1
1
1
1
1
1
1
1
1
1
1
1
1
1
1
1
1
1
1
1
1
1
1
1
1
1.0008
1.97524
2.49427
2.5216
2.52622
2.52533
2.52421
2.52244
2.51971
2.51562
2.5096
2.50138
2.48964
2.47472
2.45353
2.42807
2.39634
2.36126
2.32106
2.2743
1
1
1
1
1
1
1
1
1
1
1
1
1
1
1
1
1
1
1
1
1
1
1
1
1
1
1
1
0.999996
1.44959
2.37485
2.51194
2.50918
2.51022
2.51014
2.50827
2.50452
2.49944
2.49275
2.48456
2.47343
2.45897
2.43912
2.41539
2.38648
2.35479
2.31743
2.2765
1
1
1
1
1
1
1
1
1
1
1
1
1
1
1
1
1
1
1
1
1
1
1
1
1
1
1
1
0.999999
1.04957
2.20071
2.49047
2.49041
2.49306
2.49438
2.49314
2.48951
2.48404
2.477
2.46872
2.45771
2.44383
2.42557
2.40328
2.37677
2.34738
2.31284
2.27618
1
1
1
1
1
1
1
1
1
1
1
1
1
1
1
1
1
1
1
1
1
1
1
1
1
1
1
1
1
1.00042
1.80691
2.42227
2.47213
2.47849
2.48175
2.48004
2.47617
2.47014
2.46262
2.45378
2.44272
2.42923
2.41228
2.39129
2.36678
2.33908
2.30749
2.27424
1
1
1
1
1
1
1
1
1
1
1
1
1
1
1
1
1
1
1
1
1
1
1
1
1
1
1
1
1
0.999999
1.18559
2.27089
2.47495
2.46826
2.46732
2.46496
2.46069
2.45471
2.44724
2.43859
2.42788
2.41503
2.39932
2.37993
2.35733
2.33135
2.30217
2.27101
1
1
1
1
1
1
1
1
1
1
1
1
1
1
1
1
1
1
1
1
1
1
1
1
1
1
1
1
1
1
1.00774
2.04063
2.43543
2.44681
2.45071
2.44874
2.44478
2.43916
2.43185
2.42338
2.41294
2.40072
2.3861
2.36836
2.34761
2.32349
2.2963
2.26705
1
1
1
1
1
1
1
1
1
1
1
1
1
1
1
1
1
1
1
1
1
1
1
1
1
1
1
1
1
1
0.999996
1.47385
2.32295
2.44254
2.43652
2.43242
2.42876
2.4238
2.41706
2.40902
2.39895
2.38724
2.37351
2.35705
2.33775
2.31568
2.29043
2.26323
1
1
1
1
1
1
1
1
1
1
1
1
1
1
1
1
1
1
1
1
1
1
1
1
1
1
1
1
1
1
0.999997
1.05402
2.14691
2.4241
2.41498
2.41369
2.4108
2.40658
2.40086
2.39372
2.38454
2.37359
2.36071
2.34528
2.32732
2.3072
2.28395
2.25894
1
1
1
1
1
1
1
1
1
1
1
1
1
1
1
1
1
1
1
1
1
1
1
1
1
1
1
1
1
1
0.999999
1.00051
1.6743
2.33489
2.39954
2.39871
2.39675
2.3926
2.38693
2.37989
2.37099
2.36031
2.34794
2.33343
2.3169
2.29866
2.27746
2.25449
1
1
1
1
1
1
1
1
1
1
1
1
1
1
1
1
1
1
1
1
1
1
1
1
1
1
1
1
1
1
1
1
1.12166
2.16137
2.39664
2.38965
2.38516
2.37921
2.37239
2.365
2.3565
2.34638
2.33472
2.32126
2.30604
2.28922
2.26982
2.24873
1
1
1
1
1
1
1
1
1
1
1
1
1
1
1
1
1
1
1
1
1
1
1
1
1
1
1
1
1
1
1
1
1.00292
1.75359
2.32043
2.37212
2.36859
2.36418
2.35819
2.35081
2.34251
2.33318
2.32238
2.30974
2.29536
2.27949
2.2616
2.24213
1
1
1
1
1
1
1
1
1
1
1
1
1
1
1
1
1
1
1
1
1
1
1
1
1
1
1
1
1
1
1
1
1
1.16788
2.14836
2.36478
2.35745
2.35268
2.3463
2.33828
2.32944
2.31993
2.30942
2.29739
2.28379
2.26886
2.25235
2.23422
1
1
1
1
1
1
1
1
1
1
1
1
1
1
1
1
1
1
1
1
1
1
1
1
1
1
1
1
1
1
1
1
1
1.00574
1.75645
2.28888
2.34096
2.33718
2.33162
2.32431
2.316
2.30685
2.29671
2.28528
2.27243
2.25832
2.24291
2.22598
1
1
1
1
1
1
1
1
1
1
1
1
1
1
1
1
1
1
1
1
1
1
1
1
1
1
1
1
1
1
1
1
1
1.00001
1.17614
2.10942
2.32903
2.32467
2.31899
2.31175
2.3038
2.29503
2.28512
2.27394
2.26153
2.24799
2.23334
2.21754
1
1
1
1
1
1
1
1
1
1
1
1
1
1
1
1
1
1
1
1
1
1
1
1
1
1
1
1
1
1
1
1
1
1
1.00632
1.67851
2.24094
2.3096
2.30225
2.29601
2.28918
2.28149
2.27248
2.26213
2.25052
2.23776
2.22391
2.20894
1
1
1
1
1
1
1
1
1
1
1
1
1
1
1
1
1
1
1
1
1
1
1
1
1
1
1
1
1
1
1
1
1
1
1.00002
1.13927
2.05471
2.29833
2.28811
2.28287
2.27653
2.26923
2.26083
2.25129
2.24042
2.22837
2.21532
2.20107
1
1
1
1
1
1
1
1
1
1
1
1
1
1
1
1
1
1
1
1
1
1
1
1
1
1
1
1
1
1
1
1
1
1
1
1.00395
1.54589
2.17864
2.27149
2.26551
2.26052
2.25438
2.24751
2.23936
2.22963
2.21842
2.20613
2.19282
1
1
1
1
1
1
1
1
1
1
1
1
1
1
1
1
1
1
1
1
1
1
1
1
1
1
1
1
1
1
1
1
1
1
1
1.00001
1.08221
1.96095
2.26005
2.25528
2.24871
2.24175
2.23585
2.22872
2.21994
2.20947
2.19768
2.18512
1
1
1
1
1
1
1
1
1
1
1
1
1
1
1
1
1
1
1
1
1
1
1
1
1
1
1
1
1
1
1
1
1
1
1
1
1.00146
1.40211
2.11426
2.24157
2.2319
2.22777
2.2225
2.21587
2.2079
2.19856
2.18786
2.17626
1
1
1
1
1
1
1
1
1
1
1
1
1
1
1
1
1
1
1
1
1
1
1
1
1
1
1
1
1
1
1
1
1
1
1
1
1
1.03888
1.79328
2.19107
2.22755
2.22025
2.21325
2.20593
2.19807
2.18947
2.17973
2.16877
1
1
1
1
1
1
1
1
1
1
1
1
1
1
1
1
1
1
1
1
1
1
1
1
1
1
1
1
1
1
1
1
1
1
1
1
1
1.00044
1.23047
2.00602
2.21587
2.2067
2.20044
2.19351
2.18629
2.17866
2.17013
2.16019
1
1
1
1
1
1
1
1
1
1
1
1
1
1
1
1
1
1
1
1
1
1
1
1
1
1
1
1
1
1
1
1
1
1
1
1
1
1
1.01142
1.54822
2.10672
2.19365
2.18584
2.18006
2.17394
2.16707
2.15938
2.15058
1
1
1
1
1
1
1
1
1
1
1
1
1
1
1
1
1
1
1
1
1
1
1
1
1
1
1
1
1
1
1
1
1
1
1
1
1
1
1.00008
1.08869
1.85015
2.16756
2.17686
2.17079
2.16417
2.15698
2.14921
2.14089
1
1
1
1
1
1
1
1
1
1
1
1
1
1
1
1
1
1
1
1
1
1
1
1
1
1
1
1
1
1
1
1
1
1
1
1
1
1
1
1.00188
1.31096
2.00261
2.16238
2.15595
2.15003
2.14377
2.13679
2.12917
1
1
1
1
1
1
1
1
1
1
1
1
1
1
1
1
1
1
1
1
1
1
1
1
1
1
1
1
1
1
1
1
1
1
1
1
1
1
1
1.00001
1.02274
1.59304
2.07655
2.14631
2.13781
2.13133
2.12526
2.11858
1
1
1
1
1
1
1
1
1
1
1
1
1
1
1
1
1
1
1
1
1
1
1
1
1
1
1
1
1
1
1
1
1
1
1
1
1
1
1
1
1.00024
1.11304
1.83094
2.1133
2.13161
2.12398
2.11658
2.1094
1
1
1
1
1
1
1
1
1
1
1
1
1
1
1
1
1
1
1
1
1
1
1
1
1
1
1
1
1
1
1
1
1
1
1
1
1
1
1
1
1
1.00306
1.31003
1.94952
2.1154
2.11199
2.10534
2.09892
1
1
1
1
1
1
1
1
1
1
1
1
1
1
1
1
1
1
1
1
1
1
1
1
1
1
1
1
1
1
1
1
1
1
1
1
1
1
1
1
1
1.00002
1.02318
1.5345
2.02042
2.10127
2.09425
2.08748
1
1
1
1
1
1
1
1
1
1
1
1
1
1
1
1
1
1
1
1
1
1
1
1
1
1
1
1
1
1
1
1
1
1
1
1
1
1
1
1
1
1
1.00026
1.09096
1.73957
2.05022
2.08959
2.08036
1
1
1
1
1
1
1
1
1
1
1
1
1
1
1
1
1
1
1
1
1
1
1
1
1
1
1
1
1
1
1
1
1
1
1
1
1
1
1
1
1
1
1
1.00222
1.23089
1.86211
2.06442
2.07253
1
1
1
1
1
1
1
1
1
1
1
1
1
1
1
1
1
1
1
1
1
1
1
1
1
1
1
1
1
1
1
1
1
1
1
1
1
1
1
1
1
1
1
1.00001
1.01273
1.40694
1.93492
2.05773
1
1
1
1
1
1
1
1
1
1
1
1
1
1
1
1
1
1
1
1
1
1
1
1
1
1
1
1
1
1
1
1
1
1
1
1
1
1
1
1
1
1
1
1
1.00012
1.04719
1.57809
1.98171
1
1
1
1
1
1
1
1
1
1
1
1
1
1
1
1
1
1
1
1
1
1
1
1
1
1
1
1
1
1
1
1
1
1
1
1
1
1
1
1
1
1
1
1
1
1.00081
1.12173
1.72181
1
1
1
1
1
1
1
1
1
1
1
1
1
1
1
1
1
1
1
1
1
1
1
1
1
1
1
1
1
1
1
1
1
1
1
1
1
1
1
1
1
1
1
1
1
1
1.0039
1.23692
1
1
1
1
1
1
1
1
1
1
1
1
1
1
1
1
1
1
1
1
1
1
1
1
1
1
1
1
1
1
1
1
1
1
1
1
1
1
1
1
1
1
1
1
1
1
1.00003
1.01419
1
1
1
1
1
1
1
1
1
1
1
1
1
1
1
1
1
1
1
1
1
1
1
1
1
1
1
1
1
1
1
1
1
1
1
1
1
1
1
1
1
1
1
1
1
1
1
1.00015
1
1
1
1
1
1
1
1
1
1
1
1
1
1
1
1
1
1
1
1
1
1
1
1
1
1
1
1
1
1
1
1
1
1
1
1
1
1
1
1
1
1
1
1
1
1
1
1
1
1
1
1
1
1
1
1
1
1
1
1
1
1
1
1
1
1
1
1
1
1
1
1
1
1
1
1
1
1
1
1
1
1
1
1
1
1
1
1
1
1
1
1
1
1
1
1
1
1
1
1
1
1
1
1
1
1
1
1
1
1
1
1
1
1
1
1
1
1
1
1
1
1
1
1
1
1
1
1
1
1
1
1
1
1
1
1
1
1
1
1
1
1
1
1
1
1
1
1
1
1
1
1
1
1
1
1
1
1
1
1
1
1
1
1
1
1
1
1
1
1
1
1
1
1
1
1
1
1
1
1
1
1
1
1
1
1
1
1
1
1
1
1
1
1
1
1
1
1
1
1
1
1
1
1
1
1
1
1
1
1
1
1
1
1
1
1
1
1
1
1
1
1
1
1
1
1
1
1
1
1
1
1
1
1
1
1
1
1
1
1
1
1
1
1
1
1
1
1
1
1
1
1
1
1
1
1
1
1
1
1
1
1
1
1
1
1
1
1
1
1
1
1
1
1
1
1
1
1
1
1
1
1
1
1
1
1
1
1
1
1
1
1
1
1
1
1
1
1
1
1
1
1
1
1
1
1
1
1
1
1
1
1
1
1
1
1
1
1
1
1
1
1
1
1
1
1
1
1
1
1
1
1
1
1
1
1
1
1
1
1
1
1
1
1
1
1
1
1
1
1
1
1
1
1
1
1
1
1
1
1
1
1
1
1
1
1
1
1
1
1
1
1
1
1
1
1
1
1
1
1
1
1
1
1
1
1
1
1
1
1
1
1
1
1
1
1
1
1
1
1
1
1
1
1
1
1
1
1
1
1
1
1
1
1
1
1
1
1
1
1
1
1
1
1
1
1
1
1
1
1
1
1
1
1
1
1
1
1
1
1
1
1
1
1
1
1
1
1
1
1
1
1
1
1
1
1
1
1
1
1
1
1
1
1
1
1
1
1
1
1
1
1
1
1
1
1
1
1
1
1
1
1
1
1
1
1
1
1
1
1
1
1
1
1
1
1
1
1
1
1
1
1
1
1
1
1
1
1
1
1
1
1
1
1
1
1
1
1
1
1
1
1
1
1
1
1
1
1
1
1
1
1
1
1
1
1
1
1
1
1
1
1
1
1
1
1
1
1
1
1
1
1
1
1
1
1
1
1
1
1
1
1
1
1
1
1
1
1
1
1
1
1
1
1
1
1
1
1
1
1
1
1
1
1
1
1
1
1
1
1
1
1
1
1
1
1
1
1
1
1
1
1
1
1
1
1
1
1
1
1
1
1
1
1
1
1
1
1
1
1
1
1
1
1
1
1
1
1
1
1
1
1
1
1
1
1
1
1
1
1
1
1
1
1
1
1
1
1
1
1
1
1
1
1
1
1
1
1
1
1
1
1
1
1
1
1
1
1
1
1
1
1
1
1
1
1
1
1
1
1
1
1
1
1
1
1
1
1
1
1
1
1
1
1
1
1
1
1
1
1
1
1
1
1
1
1
1
1
1
1
1
1
1
1
1
1
1
1
1
1
1
1
1
1
1
1
1
1
1
1
1
1
1
1
1
1
1
1
1
1
1
1
1
1
1
1
1
1
1
1
1
1
1
1
1
1
1
1
1
1
1
1
1
1
1
1
1
1
1
1
1
1
1
1
1
1
1
1
1
1
1
1
1
1
1
1
1
1
1
1
1
1
1
1
1
1
1
1
1
1
1
1
1
1
1
1
1
1
1
1
1
1
1
1
1
1
1.57281
1.0391
0.636869
0.483442
0.698039
0.985285
1.05659
1.09641
1.20569
1.383
1.46697
1.48729
1.48641
1.484
1.5043
1.56272
1.63561
1.67281
1.66815
1.63789
1.61798
1.62275
1.63473
1.63925
1.63903
1.62828
1.6112
1.61318
1.63504
1.65697
1.66753
1.67277
1.67214
1.66937
1.66451
1.6646
1.67178
1.68274
1.69445
1.69661
1.69494
1.69368
1.69563
1.69862
1.70254
1.70671
1.70715
1.70493
1.69798
1.68939
1.68578
1.68584
1.68904
1.69559
1.69929
1.69935
1.69618
1.68907
1.68134
1.67653
1.67566
1.67659
1.68012
1.68698
1.693
1.69363
1.69347
1.6919
1.687
1.68149
1.67745
1.67474
1.67474
1.67742
1.67897
1.67875
1.67774
1.67447
1.66907
1.66944
1.69154
1.82729
2.11917
2.47681
2.76175
2.78428
2.72357
2.67963
2.66416
2.64502
2.62773
2.60959
2.59435
2.57887
2.56534
2.55309
2.54301
2.53603
2.52754
2.5167
2.50597
2.49571
2.48518
2.47518
2.46521
2.45465
2.44423
2.43452
2.42534
2.41777
2.41059
2.40163
2.39219
2.38232
2.37264
2.36419
2.35782
2.35351
2.35049
2.3481
2.34601
2.34397
2.34231
2.34066
2.33775
2.33292
2.32407
2.31159
2.30106
2.2934
2.28698
2.28119
2.27529
2.2693
2.26361
2.25821
2.25143
2.24303
2.234
2.22318
2.21103
2.20139
2.19527
2.19036
2.18546
2.18103
2.17721
2.16999
2.16019
2.14967
2.13697
2.12402
2.11427
2.10784
2.10379
2.10147
2.10018
2.09933
2.09824
2.09476
2.08824
2.08494
2.08518
2.08667
2.08879
2.08979
2.08964
2.08567
2.07459
2.0654
2.06165
2.05842
2.05501
2.05181
2.04727
2.04239
2.03609
2.02913
2.02509
2.02172
2.01792
2.01393
2.0081
1.9995
1.98744
1.97039
1.95449
1.94527
1.93909
1.93464
1.93318
1.93197
1.81772
1.50075
1.301
1.15717
1.07096
1.09431
1.06245
1.02094
1.03455
1.06287
1.11997
1.15226
1.17278
1.20674
1.26064
1.33515
1.41084
1.4469
1.46919
1.48904
1.50829
1.52781
1.54777
1.56623
1.57886
1.57905
1.57444
1.57605
1.5924
1.60829
1.61635
1.62266
1.62535
1.62655
1.62877
1.63135
1.63735
1.64814
1.66027
1.66555
1.66451
1.66335
1.6651
1.66817
1.67159
1.67499
1.67602
1.67559
1.67335
1.66918
1.66699
1.66695
1.66896
1.67256
1.67506
1.67567
1.67523
1.67267
1.66852
1.66575
1.66483
1.6648
1.666
1.6692
1.67283
1.67464
1.67467
1.67416
1.67235
1.67005
1.66683
1.66408
1.66393
1.66476
1.66504
1.66496
1.66395
1.65904
1.65968
1.67932
1.80839
2.0071
2.11426
2.23187
2.47195
2.60702
2.64222
2.63422
2.62462
2.60758
2.59367
2.58289
2.57314
2.56227
2.5491
2.53558
2.52425
2.51538
2.50702
2.49784
2.48853
2.47893
2.46893
2.45938
2.44982
2.43999
2.43122
2.42292
2.41518
2.40905
2.40233
2.39377
2.38448
2.37455
2.36448
2.35568
2.34966
2.34604
2.34368
2.34162
2.33925
2.33638
2.33338
2.32994
2.3256
2.32026
2.31386
2.30603
2.29847
2.291
2.28322
2.276
2.26975
2.26356
2.25713
2.25012
2.2425
2.23499
2.22704
2.21816
2.20862
2.19936
2.19123
2.18494
2.1796
2.1741
2.16848
2.1626
2.15486
2.1454
2.1352
2.12507
2.11588
2.10827
2.10272
2.09897
2.09622
2.09387
2.09194
2.09011
2.087
2.08311
2.08139
2.08157
2.08294
2.08486
2.08502
2.08248
2.07545
2.0668
2.06016
2.05546
2.05114
2.04663
2.04228
2.03788
2.03308
2.02714
2.02183
2.01807
2.01409
2.00942
2.0035
1.99534
1.98469
1.97106
1.95641
1.94528
1.93868
1.93412
1.93223
1.92975
1.93099
1.6563
1.53184
1.43348
1.30869
1.22446
1.17368
1.10669
1.08431
1.09117
1.0863
1.06742
1.06925
1.09381
1.13366
1.15653
1.18121
1.21838
1.25935
1.30393
1.34653
1.38662
1.42124
1.45012
1.47413
1.49698
1.51361
1.52276
1.53368
1.53966
1.54374
1.54989
1.55569
1.56004
1.56546
1.56924
1.57219
1.5777
1.58648
1.59426
1.59761
1.6003
1.60494
1.60946
1.61243
1.6139
1.61369
1.61366
1.61458
1.61707
1.62178
1.62723
1.63055
1.63167
1.63138
1.62975
1.62808
1.62708
1.62605
1.6253
1.62557
1.62713
1.63065
1.63348
1.63466
1.63473
1.63354
1.63094
1.62963
1.6289
1.62889
1.62985
1.63167
1.63195
1.63233
1.63206
1.62938
1.63286
1.65897
1.7785
1.98869
2.08234
2.06387
2.04911
2.13915
2.33851
2.50925
2.57752
2.56355
2.55093
2.53528
2.52555
2.51902
2.51119
2.50155
2.49111
2.48117
2.4716
2.46254
2.45413
2.44661
2.43852
2.42957
2.42086
2.41131
2.40052
2.39156
2.38512
2.38007
2.37656
2.37206
2.36607
2.35931
2.35131
2.34166
2.33127
2.32395
2.32125
2.32006
2.31924
2.31814
2.31591
2.31173
2.3052
2.29715
2.28925
2.28292
2.27924
2.27545
2.27115
2.26571
2.25893
2.25184
2.24495
2.23755
2.22928
2.22065
2.21209
2.20426
2.19754
2.19156
2.1859
2.17943
2.17155
2.16316
2.15588
2.14922
2.14189
2.13397
2.12675
2.12016
2.11384
2.10834
2.10306
2.09728
2.09106
2.08517
2.08041
2.07687
2.07485
2.07416
2.07341
2.07202
2.07019
2.06886
2.06762
2.0667
2.06584
2.06404
2.06074
2.0556
2.04855
2.04074
2.03387
2.02843
2.02399
2.02001
2.01569
2.01101
2.00654
2.002
1.99673
1.99006
1.98187
1.97242
1.96232
1.9526
1.94337
1.93516
1.92874
1.92471
1.92063
1.99916
1.80976
1.6787
1.56345
1.46303
1.39826
1.34483
1.2573
1.18812
1.18181
1.18587
1.17789
1.15146
1.12818
1.12272
1.1208
1.12168
1.13137
1.14936
1.17094
1.1983
1.23821
1.2886
1.33281
1.35992
1.38809
1.42139
1.44082
1.45525
1.4662
1.47234
1.48026
1.49122
1.49745
1.50358
1.50976
1.51234
1.51634
1.5222
1.52716
1.531
1.53534
1.54032
1.54413
1.5451
1.54466
1.54444
1.54507
1.54727
1.55234
1.56038
1.56836
1.57119
1.57236
1.57419
1.57522
1.57557
1.57543
1.57493
1.57372
1.57281
1.57317
1.57476
1.57686
1.57884
1.58046
1.58083
1.58046
1.57986
1.57956
1.57976
1.58098
1.58114
1.58126
1.58239
1.5835
1.59194
1.62734
1.75617
1.94457
2.03817
2.03672
2.02528
2.0157
2.00832
2.06045
2.23121
2.40904
2.45649
2.48227
2.47464
2.46859
2.46006
2.45154
2.44417
2.43519
2.42682
2.41774
2.40853
2.40052
2.39268
2.38546
2.3783
2.37154
2.36462
2.35607
2.34645
2.33961
2.33565
2.33226
2.32849
2.32432
2.31953
2.31369
2.30627
2.29684
2.28733
2.28227
2.28041
2.27932
2.27864
2.27735
2.27443
2.26858
2.25902
2.24973
2.24458
2.24105
2.23797
2.23475
2.23084
2.22532
2.21746
2.20898
2.20156
2.19444
2.18709
2.17956
2.17257
2.16669
2.16174
2.15718
2.15224
2.14585
2.13753
2.12826
2.11932
2.11124
2.10434
2.09831
2.09336
2.08948
2.08611
2.0831
2.07971
2.07509
2.06886
2.06143
2.05484
2.05185
2.05159
2.05199
2.0522
2.05094
2.04652
2.04179
2.03939
2.03856
2.03834
2.03803
2.03548
2.03079
2.02418
2.01558
2.0068
2.00008
1.99555
1.99205
1.98875
1.98512
1.98063
1.97481
1.9676
1.95962
1.95206
1.94532
1.93905
1.93243
1.92577
1.91856
1.91203
1.9049
2.06076
1.9127
1.80075
1.69222
1.57705
1.51634
1.47174
1.41315
1.31951
1.26757
1.2718
1.26669
1.23904
1.20479
1.19648
1.18338
1.15994
1.15895
1.16587
1.16752
1.16281
1.16245
1.17173
1.19343
1.22553
1.26866
1.32815
1.37118
1.39147
1.40925
1.41893
1.42722
1.44078
1.44772
1.45598
1.46426
1.46883
1.47484
1.48438
1.49558
1.50129
1.50378
1.50688
1.50836
1.50797
1.50639
1.50462
1.50422
1.50571
1.51126
1.52017
1.52948
1.53325
1.53418
1.53494
1.53467
1.53355
1.53305
1.53334
1.5337
1.53383
1.53438
1.5347
1.53517
1.53612
1.53732
1.53897
1.54037
1.54068
1.54044
1.5397
1.53942
1.53897
1.53945
1.54159
1.55014
1.59606
1.74892
1.91308
1.99973
2.01994
2.01767
2.01372
1.99982
1.9833
1.97531
2.00235
2.14006
2.30224
2.3922
2.41417
2.42954
2.4252
2.4174
2.40771
2.39576
2.38624
2.37737
2.36792
2.35919
2.35172
2.34454
2.3383
2.3324
2.32659
2.3202
2.3126
2.30526
2.29953
2.29507
2.29119
2.28728
2.2829
2.27777
2.27166
2.26429
2.25574
2.24795
2.24323
2.24048
2.238
2.23522
2.23129
2.22512
2.21699
2.21019
2.2056
2.20216
2.19947
2.19676
2.19335
2.18804
2.17893
2.16773
2.15906
2.15269
2.14697
2.14183
2.1373
2.13298
2.12879
2.12459
2.12002
2.11442
2.10702
2.09784
2.08838
2.08034
2.07389
2.06857
2.06416
2.06042
2.05727
2.05458
2.05186
2.04852
2.04426
2.03928
2.03398
2.02925
2.02657
2.02582
2.02545
2.02392
2.01888
2.01197
2.00874
2.00762
2.00638
2.0049
2.00337
2.00003
1.99528
1.98956
1.98196
1.97302
1.96533
1.96031
1.9569
1.95376
1.94996
1.94481
1.93862
1.93311
1.92806
1.92306
1.9179
1.91223
1.90689
1.90102
1.89419
1.88402
2.10983
1.98892
1.88434
1.78898
1.69867
1.61329
1.54722
1.50485
1.4599
1.39627
1.33988
1.33162
1.31503
1.2789
1.26241
1.25358
1.22663
1.21008
1.20687
1.20034
1.18815
1.17414
1.17044
1.17066
1.17311
1.1846
1.21325
1.25281
1.28049
1.30995
1.34096
1.36601
1.39505
1.41464
1.42659
1.43671
1.44219
1.44908
1.45955
1.47431
1.48182
1.48304
1.48447
1.4858
1.48615
1.48573
1.48635
1.48842
1.4901
1.49347
1.49979
1.50715
1.51021
1.51082
1.51102
1.50975
1.50894
1.50928
1.51081
1.51357
1.51689
1.51809
1.5179
1.5172
1.51634
1.51532
1.51429
1.51386
1.51398
1.51433
1.51502
1.51676
1.51789
1.51974
1.52655
1.57791
1.75168
1.9201
1.97865
2.00813
2.0125
2.00975
1.99859
1.98351
1.97261
1.9665
1.96259
1.97892
2.0662
2.2192
2.32961
2.38115
2.38988
2.39646
2.39106
2.38122
2.36871
2.35752
2.34674
2.3358
2.32826
2.32178
2.3171
2.31305
2.30808
2.30301
2.29701
2.28946
2.28126
2.27448
2.26943
2.26494
2.26019
2.2549
2.24899
2.24228
2.23452
2.22587
2.21784
2.21242
2.20834
2.20412
2.19931
2.19364
2.18796
2.18293
2.17816
2.17402
2.17051
2.16708
2.16259
2.15564
2.1463
2.13593
2.12715
2.12127
2.1169
2.11289
2.10918
2.10562
2.10162
2.09734
2.09268
2.08687
2.07965
2.07189
2.06435
2.05706
2.05003
2.04363
2.03829
2.03424
2.03114
2.02822
2.02523
2.02237
2.0199
2.01779
2.01536
2.01158
2.00627
2.00152
1.99838
1.99511
1.98992
1.98388
1.98045
1.97857
1.97637
1.97365
1.97096
1.96794
1.96373
1.95902
1.95352
1.94603
1.93687
1.92887
1.92337
1.91934
1.91563
1.9118
1.90874
1.90591
1.90275
1.89938
1.89509
1.89045
1.88602
1.88068
1.87382
1.86216
2.14511
2.04893
1.95597
1.85953
1.78255
1.71128
1.63799
1.57434
1.54257
1.49411
1.42446
1.39267
1.38231
1.35761
1.32464
1.3106
1.29089
1.26145
1.25678
1.25521
1.24329
1.22047
1.21037
1.20447
1.19397
1.19289
1.19648
1.19805
1.2
1.20759
1.22902
1.26202
1.30503
1.35279
1.38115
1.40381
1.41705
1.42649
1.43795
1.45649
1.46978
1.47162
1.47168
1.47218
1.47473
1.47686
1.47936
1.48289
1.4851
1.48681
1.49008
1.49479
1.49601
1.4971
1.49828
1.49814
1.49713
1.49777
1.50131
1.50731
1.51034
1.51053
1.50989
1.50753
1.50542
1.50399
1.50276
1.50273
1.50308
1.50426
1.50705
1.50873
1.5106
1.51984
1.57742
1.75562
1.93235
1.98489
2.00581
2.00889
2.00339
1.99462
1.98357
1.97524
1.9688
1.96707
1.9646
1.95722
1.9605
2.00271
2.13006
2.2663
2.34196
2.36612
2.37498
2.37531
2.3656
2.35366
2.342
2.32944
2.32027
2.31346
2.30841
2.30521
2.30115
2.29669
2.29148
2.28457
2.27593
2.26721
2.26047
2.25499
2.24944
2.24337
2.2368
2.22983
2.22263
2.21509
2.20677
2.19841
2.19192
2.18681
2.18196
2.17747
2.17298
2.1682
2.16339
2.15825
2.1523
2.14561
2.13879
2.13196
2.12504
2.11771
2.10989
2.1029
2.09805
2.09458
2.09148
2.08861
2.08477
2.08008
2.0744
2.0672
2.05975
2.05355
2.04816
2.04265
2.03645
2.02949
2.02224
2.01549
2.01032
2.00721
2.00512
2.00364
2.00269
2.00214
2.00119
1.9993
1.99456
1.98607
1.9774
1.97118
1.96647
1.96238
1.95836
1.95451
1.95131
1.94817
1.94493
1.94183
1.93825
1.9339
1.92889
1.92233
1.91381
1.90462
1.89625
1.88982
1.88631
1.88477
1.88349
1.88203
1.88014
1.87767
1.87462
1.87093
1.8659
1.85974
1.85357
1.84396
2.16965
2.09052
2.00584
1.9192
1.85287
1.78681
1.71192
1.64533
1.6078
1.56863
1.51103
1.45273
1.4401
1.42487
1.39785
1.38015
1.36145
1.32411
1.30273
1.30191
1.29537
1.27271
1.24975
1.24175
1.2323
1.2186
1.21467
1.21301
1.20654
1.20325
1.20544
1.21055
1.22171
1.24563
1.27434
1.30373
1.33842
1.36572
1.3912
1.41604
1.44176
1.45948
1.46083
1.46205
1.46607
1.47014
1.47456
1.48004
1.48435
1.48696
1.48886
1.48967
1.48897
1.48781
1.4882
1.48933
1.49031
1.49183
1.49657
1.50335
1.50626
1.50683
1.50671
1.50479
1.50178
1.50005
1.49963
1.49981
1.5004
1.50274
1.50477
1.50595
1.51902
1.60355
1.76605
1.93766
1.99238
2.00705
2.00911
2.00524
1.99425
1.98369
1.97517
1.97189
1.96991
1.96745
1.95986
1.95193
1.94622
1.9418
1.95924
2.04115
2.18821
2.29146
2.35518
2.36392
2.36198
2.35402
2.34517
2.33541
2.32454
2.31415
2.30634
2.30042
2.29616
2.2927
2.28829
2.28279
2.27556
2.26655
2.2582
2.25143
2.24501
2.23803
2.23055
2.22338
2.21689
2.21058
2.20369
2.19532
2.18663
2.18005
2.17455
2.16956
2.16484
2.15966
2.15428
2.14833
2.14019
2.13124
2.12454
2.11955
2.11514
2.11051
2.10491
2.09796
2.09104
2.0862
2.08294
2.08058
2.07626
2.07051
2.06338
2.05541
2.04855
2.04328
2.0388
2.03444
2.02962
2.02374
2.01634
2.00776
1.99974
1.9946
1.99281
1.99245
1.99361
1.99395
1.99296
1.9906
1.98561
1.97727
1.96655
1.95775
1.95237
1.94838
1.94437
1.9398
1.93529
1.93171
1.92855
1.92611
1.92199
1.91676
1.9107
1.90365
1.89621
1.88907
1.88157
1.87409
1.86926
1.86726
1.86611
1.86552
1.86491
1.86253
1.85816
1.85201
1.84618
1.84151
1.83765
1.83176
2.19
2.12049
2.04375
1.97054
1.90625
1.84397
1.77882
1.71792
1.66207
1.62216
1.58487
1.53777
1.50408
1.47951
1.44841
1.43015
1.41889
1.3962
1.35761
1.33883
1.33308
1.32176
1.29972
1.28498
1.27871
1.26563
1.25414
1.24876
1.24175
1.23299
1.22775
1.22153
1.22056
1.22159
1.22418
1.22844
1.2386
1.25814
1.28884
1.33199
1.37236
1.4111
1.43517
1.44987
1.45649
1.45971
1.46541
1.47335
1.48246
1.48817
1.4914
1.49288
1.49208
1.48709
1.48503
1.48587
1.48663
1.48846
1.49389
1.49953
1.50146
1.50295
1.50391
1.50309
1.50055
1.49976
1.50004
1.5007
1.50179
1.50287
1.50356
1.51784
1.62581
1.82191
1.93584
1.99419
2.00091
2.00233
2.00029
1.99544
1.98991
1.98126
1.97492
1.97171
1.9675
1.96099
1.9535
1.94756
1.94192
1.93842
1.93394
1.93782
1.98208
2.09437
2.23893
2.3114
2.34952
2.35279
2.35198
2.34283
2.33221
2.3204
2.30859
2.2999
2.29477
2.29053
2.28615
2.28077
2.27441
2.26667
2.25783
2.24995
2.24306
2.23614
2.22901
2.22206
2.21536
2.20899
2.20264
2.19555
2.18714
2.17807
2.17046
2.16426
2.1588
2.1537
2.14782
2.14041
2.13137
2.12238
2.11672
2.11353
2.11064
2.10784
2.10432
2.09997
2.09425
2.08626
2.0773
2.07009
2.06507
2.05952
2.05344
2.04787
2.04286
2.03815
2.03382
2.02977
2.02551
2.02056
2.01445
2.00691
1.99864
1.99138
1.98627
1.98345
1.98146
1.98057
1.98031
1.9789
1.97594
1.97038
1.96263
1.95479
1.94806
1.94261
1.93812
1.93401
1.9299
1.92546
1.91981
1.91214
1.90538
1.89947
1.8938
1.8885
1.88399
1.87975
1.87543
1.87076
1.86572
1.86122
1.85789
1.85466
1.85014
1.84504
1.84
1.83556
1.8323
1.82961
1.82806
1.82534
2.20461
2.14181
2.07318
2.01134
1.95258
1.88908
1.82747
1.77949
1.72716
1.67371
1.63876
1.60586
1.568
1.53897
1.50984
1.47739
1.46068
1.44386
1.41655
1.38139
1.36773
1.36317
1.35177
1.33266
1.31882
1.31033
1.29782
1.28372
1.27464
1.26704
1.25892
1.24939
1.23666
1.23013
1.22997
1.2275
1.22783
1.23067
1.23652
1.24824
1.26814
1.29604
1.33362
1.36956
1.4037
1.42359
1.44128
1.45625
1.47268
1.48652
1.48965
1.4907
1.49055
1.48813
1.48469
1.4841
1.48494
1.48871
1.49452
1.49724
1.49749
1.49736
1.49643
1.49502
1.49501
1.49598
1.49808
1.50193
1.50468
1.50646
1.52356
1.63488
1.85623
1.96212
1.98967
1.99506
1.99273
1.99296
1.99227
1.98949
1.98637
1.98236
1.97446
1.96749
1.96191
1.95529
1.94845
1.94386
1.94058
1.93717
1.93284
1.92907
1.92429
1.93766
2.01321
2.14322
2.26575
2.31458
2.33717
2.33994
2.33575
2.32452
2.31116
2.29943
2.291
2.28619
2.28214
2.27799
2.27238
2.26534
2.25565
2.24664
2.2406
2.23523
2.22955
2.22294
2.21548
2.20791
2.20082
2.19398
2.18611
2.17706
2.16829
2.16051
2.15332
2.14632
2.13971
2.13302
2.12514
2.11719
2.11307
2.11023
2.10787
2.10631
2.10454
2.10127
2.09659
2.08865
2.07625
2.06452
2.05706
2.05231
2.04809
2.04405
2.03977
2.03527
2.03043
2.02593
2.02231
2.01855
2.01334
2.0072
2.00019
1.99221
1.98418
1.9783
1.97506
1.97259
1.97003
1.9676
1.9648
1.96167
1.95839
1.95468
1.94992
1.94429
1.93863
1.9336
1.92841
1.92124
1.91155
1.90223
1.89485
1.88904
1.88432
1.88059
1.87765
1.87513
1.87247
1.86971
1.86565
1.85899
1.85057
1.84281
1.83653
1.83136
1.82758
1.82512
1.82365
1.82252
1.82261
1.82149
2.21701
2.16004
2.09936
2.04398
1.98818
1.92713
1.87405
1.82555
1.77887
1.72874
1.69414
1.65956
1.62119
1.5905
1.56403
1.53079
1.5006
1.48219
1.46511
1.43638
1.40422
1.39458
1.39007
1.38059
1.36079
1.34568
1.33573
1.32261
1.30934
1.30492
1.29902
1.28912
1.27475
1.262
1.25403
1.2464
1.24209
1.24272
1.24316
1.24188
1.24131
1.24252
1.24807
1.26234