/*--------------------------------*- C++ -*----------------------------------*\
  =========                 |
  \\      /  F ield         | OpenFOAM: The Open Source CFD Toolbox
   \\    /   O peration     | Website:  https://openfoam.org
    \\  /    A nd           | Version:  7
     \\/     M anipulation  |
\*---------------------------------------------------------------------------*/
FoamFile
{
    version     2.0;
    format      ascii;
    class       volScalarField;
    location    "0.3";
    object      T;
}
// * * * * * * * * * * * * * * * * * * * * * * * * * * * * * * * * * * * * * //

dimensions      [0 0 0 1 0 0 0];

internalField   nonuniform List<scalar> 
16128
(
1
1
1
1
1
1
1
1
1
1
1
1
1
1
1
1
1
1
1
1
1
1
1
1
1
1
1
1
1
1
1
1
1.00111
2.41209
2.99746
3.02414
3.03639
3.06727
3.10934
3.16444
3.24345
3.35414
3.47441
3.56506
3.60355
3.59196
3.55345
3.52426
1
1
1
1
1
1
1
1
1
1
1
1
1
1
1
1
1
1
1
1
1
1
1
1
1
1
1
1
1
1
1
1
1
2.40219
2.99578
3.02282
3.03544
3.06644
3.10854
3.16396
3.24403
3.35547
3.47526
3.56507
3.60242
3.59023
3.55132
3.52447
1
1
1
1
1
1
1
1
1
1
1
1
1
1
1
1
1
1
1
1
1
1
1
1
1
1
1
1
1
1
1
1
1
2.37555
2.99457
3.01962
3.0319
3.06345
3.10563
3.16159
3.24339
3.35576
3.47511
3.56452
3.60081
3.58774
3.54843
3.52433
1
1
1
1
1
1
1
1
1
1
1
1
1
1
1
1
1
1
1
1
1
1
1
1
1
1
1
1
1
1
1
1
1
2.33283
2.991
3.01441
3.02592
3.05754
3.09905
3.1552
3.23875
3.35197
3.47149
3.56146
3.59753
3.58411
3.54476
3.52405
1
1
1
1
1
1
1
1
1
1
1
1
1
1
1
1
1
1
1
1
1
1
1
1
1
1
1
1
1
1
1
1
1
2.27436
2.98221
3.00709
3.01807
3.04936
3.08902
3.1446
3.22902
3.34264
3.46304
3.55484
3.59158
3.57854
3.54003
3.5233
1
1
1
1
1
1
1
1
1
1
1
1
1
1
1
1
1
1
1
1
1
1
1
1
1
1
1
1
1
1
1
1
1
2.19639
2.96477
2.9979
3.00892
3.0395
3.07657
3.13115
3.2153
3.32807
3.44908
3.54349
3.58216
3.57076
3.53472
3.52239
1
1
1
1
1
1
1
1
1
1
1
1
1
1
1
1
1
1
1
1
1
1
1
1
1
1
1
1
1
1
1
1
1
2.09021
2.93265
2.98604
2.99857
3.02878
3.0635
3.11692
3.1994
3.30963
3.42993
3.52689
3.56869
3.56053
3.52887
3.521
1
1
1
1
1
1
1
1
1
1
1
1
1
1
1
1
1
1
1
1
1
1
1
1
1
1
1
1
1
1
1
1
1
1.93646
2.87561
2.97076
2.98755
3.01811
3.05147
3.10332
3.18258
3.28817
3.40562
3.50456
3.55072
3.54805
3.52251
3.51871
1
1
1
1
1
1
1
1
1
1
1
1
1
1
1
1
1
1
1
1
1
1
1
1
1
1
1
1
1
1
1
1
1
1.71684
2.78155
2.95267
2.97709
3.00833
3.04101
3.09023
3.16481
3.26357
3.3756
3.47517
3.52839
3.53423
3.51481
3.51541
1
1
1
1
1
1
1
1
1
1
1
1
1
1
1
1
1
1
1
1
1
1
1
1
1
1
1
1
1
1
1
1
1
1.43385
2.64515
2.93412
2.96933
2.99927
3.03044
3.07621
3.14542
3.23601
3.34099
3.44012
3.5012
3.51735
3.5054
3.51071
1
1
1
1
1
1
1
1
1
1
1
1
1
1
1
1
1
1
1
1
1
1
1
1
1
1
1
1
1
1
1
1
1
1.1378
2.48717
2.92327
2.96359
2.9879
3.01715
3.0608
3.12443
3.20552
3.30161
3.39869
3.46685
3.49503
3.4947
3.50539
1
1
1
1
1
1
1
1
1
1
1
1
1
1
1
1
1
1
1
1
1
1
1
1
1
1
1
1
1
1
1
1
1
1.00255
2.33009
2.91403
2.95004
2.97199
3.00186
3.04485
3.1026
3.17288
3.25808
3.35205
3.42722
3.46777
3.48064
3.49516
1
1
1
1
1
1
1
1
1
1
1
1
1
1
1
1
1
1
1
1
1
1
1
1
1
1
1
1
1
1
1
1
1
1
2.11859
2.88486
2.92764
2.94993
2.98612
3.03
3.08057
3.138
3.21013
3.29785
3.37928
3.43255
3.45916
3.48044
1
1
1
1
1
1
1
1
1
1
1
1
1
1
1
1
1
1
1
1
1
1
1
1
1
1
1
1
1
1
1
1
1
1
1.79844
2.79181
2.90217
2.92838
2.97335
3.0161
3.0566
3.1005
3.15907
3.23848
3.3252
3.39177
3.42927
3.4489
1
1
1
1
1
1
1
1
1
1
1
1
1
1
1
1
1
1
1
1
1
1
1
1
1
1
1
1
1
1
1
1
1
1
1.36158
2.59913
2.87044
2.91604
2.96368
2.99964
3.02858
3.06061
3.10663
3.17438
3.2589
3.33333
3.37948
3.40065
1
1
1
1
1
1
1
1
1
1
1
1
1
1
1
1
1
1
1
1
1
1
1
1
1
1
1
1
1
1
1
1
1
1
1.01811
2.34467
2.83545
2.90919
2.9475
2.97446
2.99612
3.0207
3.05539
3.10849
3.1834
3.26371
3.3271
3.37406
1
1
1
1
1
1
1
1
1
1
1
1
1
1
1
1
1
1
1
1
1
1
1
1
1
1
1
1
1
1
1
1
1
1
1.00008
1.98011
2.78023
2.8904
2.91363
2.93957
2.96185
2.98318
3.00836
3.04671
3.10274
3.16275
3.17397
3.09083
1
1
1
1
1
1
1
1
1
1
1
1
1
1
1
1
1
1
1
1
1
1
1
1
1
1
1
1
1
1
1
1
1
1
1
1.46364
2.62543
2.84328
2.86895
2.90534
2.93131
2.94877
2.96398
2.98606
3.01622
3.04538
3.0362
2.90053
1
1
1
1
1
1
1
1
1
1
1
1
1
1
1
1
1
1
1
1
1
1
1
1
1
1
1
1
1
1
1
1
1
1
1
1.03117
2.35795
2.7756
2.8368
2.88025
2.90442
2.91658
2.92141
2.92884
2.93457
2.93973
2.90264
2.75587
1
1
1
1
1
1
1
1
1
1
1
1
1
1
1
1
1
1
1
1
1
1
1
1
1
1
1
1
1
1
1
1
1
1
1
1.00019
1.9053
2.68636
2.8181
2.84452
2.87294
2.88355
2.88083
2.87583
2.86523
2.84754
2.79448
2.67734
1
1
1
1
1
1
1
1
1
1
1
1
1
1
1
1
1
1
1
1
1
1
1
1
1
1
1
1
1
1
1
1
1
1
1
1
1.25609
2.47626
2.77532
2.80342
2.83679
2.84973
2.84506
2.83171
2.80839
2.7745
2.71182
2.61198
1
1
1
1
1
1
1
1
1
1
1
1
1
1
1
1
1
1
1
1
1
1
1
1
1
1
1
1
1
1
1
1
1
1
1
1
1.00713
2.09561
2.6935
2.7783
2.79947
2.81205
2.80946
2.79385
2.76111
2.71509
2.64835
2.55971
1
1
1
1
1
1
1
1
1
1
1
1
1
1
1
1
1
1
1
1
1
1
1
1
1
1
1
1
1
1
1
1
1
1
1
1
1.00001
1.40253
2.48408
2.7327
2.75292
2.77018
2.76793
2.75398
2.72113
2.67066
2.60142
2.51923
1
1
1
1
1
1
1
1
1
1
1
1
1
1
1
1
1
1
1
1
1
1
1
1
1
1
1
1
1
1
1
1
1
1
1
1
1
1.01933
2.08496
2.63227
2.71902
2.72623
2.72194
2.71042
2.68262
2.63407
2.56855
2.49496
1
1
1
1
1
1
1
1
1
1
1
1
1
1
1
1
1
1
1
1
1
1
1
1
1
1
1
1
1
1
1
1
1
1
1
1
1
1.00006
1.3334
2.39767
2.66763
2.66628
2.67262
2.66568
2.64446
2.60379
2.54672
2.48051
1
1
1
1
1
1
1
1
1
1
1
1
1
1
1
1
1
1
1
1
1
1
1
1
1
1
1
1
1
1
1
1
1
1
1
1
1
1
1.0137
1.92202
2.54674
2.63515
2.62689
2.61982
2.60315
2.5731
2.52697
2.46959
1
1
1
1
1
1
1
1
1
1
1
1
1
1
1
1
1
1
1
1
1
1
1
1
1
1
1
1
1
1
1
1
1
1
1
1
1
1
1.00004
1.19743
2.23595
2.57061
2.57595
2.57621
2.56633
2.54054
2.50175
2.45533
1
1
1
1
1
1
1
1
1
1
1
1
1
1
1
1
1
1
1
1
1
1
1
1
1
1
1
1
1
1
1
1
1
1
1
1
1
1
1
1.00453
1.58431
2.3814
2.54412
2.52354
2.51691
2.50435
2.47483
2.43537
1
1
1
1
1
1
1
1
1
1
1
1
1
1
1
1
1
1
1
1
1
1
1
1
1
1
1
1
1
1
1
1
1
1
1
1
1
1
1
1.00001
1.0558
1.91409
2.43933
2.50026
2.47512
2.45735
2.43909
2.4093
1
1
1
1
1
1
1
1
1
1
1
1
1
1
1
1
1
1
1
1
1
1
1
1
1
1
1
1
1
1
1
1
1
1
1
1
1
1
1
1
1.00045
1.21733
2.09303
2.42517
2.44549
2.42212
2.39878
2.37475
1
1
1
1
1
1
1
1
1
1
1
1
1
1
1
1
1
1
1
1
1
1
1
1
1
1
1
1
1
1
1
1
1
1
1
1
1
1
1
1
1
1.0055
1.43183
2.17068
2.3912
2.38869
2.36558
2.3368
1
1
1
1
1
1
1
1
1
1
1
1
1
1
1
1
1
1
1
1
1
1
1
1
1
1
1
1
1
1
1
1
1
1
1
1
1
1
1
1
1
1.00001
1.02569
1.59348
2.19317
2.34389
2.33555
2.30721
1
1
1
1
1
1
1
1
1
1
1
1
1
1
1
1
1
1
1
1
1
1
1
1
1
1
1
1
1
1
1
1
1
1
1
1
1
1
1
1
1
1
1.00013
1.06275
1.67938
2.17598
2.29125
2.28341
1
1
1
1
1
1
1
1
1
1
1
1
1
1
1
1
1
1
1
1
1
1
1
1
1
1
1
1
1
1
1
1
1
1
1
1
1
1
1
1
1
1
1
1.00057
1.09951
1.70356
2.12855
2.22624
1
1
1
1
1
1
1
1
1
1
1
1
1
1
1
1
1
1
1
1
1
1
1
1
1
1
1
1
1
1
1
1
1
1
1
1
1
1
1
1
1
1
1
1
1.0013
1.1187
1.67465
2.0444
1
1
1
1
1
1
1
1
1
1
1
1
1
1
1
1
1
1
1
1
1
1
1
1
1
1
1
1
1
1
1
1
1
1
1
1
1
1
1
1
1
1
1
1
1
1.00181
1.11246
1.57844
1
1
1
1
1
1
1
1
1
1
1
1
1
1
1
1
1
1
1
1
1
1
1
1
1
1
1
1
1
1
1
1
1
1
1
1
1
1
1
1
1
1
1
1
1
1
1.00165
1.07776
1
1
1
1
1
1
1
1
1
1
1
1
1
1
1
1
1
1
1
1
1
1
1
1
1
1
1
1
1
1
1
1
1
1
1
1
1
1
1
1
1
1
1
1
1
1
1
1.00088
1
1
1
1
1
1
1
1
1
1
1
1
1
1
1
1
1
1
1
1
1
1
1
1
1
1
1
1
1
1
1
1
1
1
1
1
1
1
1
1
1
1
1
1
1
1
1
1
1
1
1
1
1
1
1
1
1
1
1
1
1
1
1
1
1
1
1
1
1
1
1
1
1
1
1
1
1
1
1
1
1
1
1
1
1
1
1
1
1
1
1
1
1
1
1
1
1
1
1
1
1
1
1
1
1
1
1
1
1
1
1
1
1
1
1
1
1
1
1
1
1
1
1
1
1
1
1
1
1
1
1
1
1
1
1
1
1
1
1
1
1
1
1
1
1
1
1
1
1
1
1
1
1
1
1
1
1
1
1
1
1
1
1
1
1
1
1
1
1
1
1
1
1
1
1
1
1
1
1
1
1
1
1
1
1
1
1
1
1
1
1
1
1
1
1
1
1
1
1
1
1
1
1
1
1
1
1
1
1
1
1
1
1
1
1
1
1
1
1
1
1
1
1
1
1
1
1
1
1
1
1
1
1
1
1
1
1
1
1
1
1
1
1
1
1
1
1
1
1
1
1
1
1
1
1
1
1
1
1
1
1
1
1
1
1
1
1
1
1
1
1
1
1
1
1
1
1
1
1
1
1
1
1
1
1
1
1
1
1
1
1
1
1
1
1
1
1
1
1
1
1
1
1
1
1
1
1
1
1
1
1
1
1
1
1
1
1
1
1
1
1
1
1
1
1
1
1
1
1
1
1
1
1
1
1
1
1
1
1
1
1
1
1
1
1
1
1
1
1
1
1
1
1
1
1
1
1
1
1
1
1
1
1
1
1
1
1
1
1
1
1
1
1
1
1
1
1
1
1
1
1
1
1
1
1
1
1
1
1
1
1
1
1
1
1
1
1
1
1
1
1
1
1
1
1
1
1
1
1
1
1
1
1
1
1
1
1
1
1
1
1
1
1
1
1
1
1
1
1
1
1
1
1
1
1
1
1
1
1
1
1
1
1
1
1
1
1
1
1
1
1
1
1
1
1
1
1
1
1
1
1
1
1
1
1
1
1
1
1
1
1
1
1
1
1
1
1
1
1
1
1
1
1
1
1
1
1
1
1
1
1
1
1
1
1
1
1
1
1
1
1
1
1
1
1
1
1
1
1
1
1
1
1
1
1
1
1
1
1
1
1
1
1
1
1
1
1
1
1
1
1
1
1
1
1
1
1
1
1
1
1
1
1
1
1
1
1
1
1
1
1
1
1
1
1
1
1
1
1
1
1
1
1
1
1
1
1
1
1
1
1
1
1
1
1
1
1
1
1
1
1
1
1
1
1
1
1
1
1
1
1
1
1
1
1
1
1
1
1
1
1
1
1
1
1
1
1
1
1
1
1
1
1
1
1
1
1
1
1
1
1
1
1
1
1
1
1
1
1
1
1
1
1
1
1
1
1
1
1
1
1
1
1
1
1
1
1
1
1
1
1
1
1
1
1
1
1
1
1
1
1
1
1
1
1
1
1
1
1
1
1
1
1
1
1
1
1
1
1
1
1
1
1
1
1
1
1
1
1
1
1
1
1
1
1
1
1
1
1
1
1
1
1
1
1
1
1
1
1
1
1
1
1
1
1
1
1
1
1
1
1
1
1
1
1
1
1
1
1
1
1
1
1
1
1
1
1
1
1
1
1
1
1
1
1
1
1
1
1
1
1
1
1
1
1
1
1
1
1
1
1
1
1
1
1
1
1
1
1
1
1
1
1
1
1
1
1
1
1
1
1
1
1
1
1
1
1
1
1
1
1
1
1
1
1
1
1
1
1
1
1
1
1
1
1
1
1
1
1
1
1
1
1
1
1
1
1
1
1
1
1
1
1
1
1
1
1
1
1
1
1
1
1
1
1
1
1
1
1
1
1
1
1
1
1
1
1
1
1
1
1
1
1
1
1
1
1
1
1
1
1
1
1
1
1
1
1
1
1
1
1
1
1
1
1
1
1
1
1
1
1
1
1
1
1
1
1
1
1
1
1
1
1
1
1
1
1
1
1
1
1
1
1
1
1
1
1
1
1
1
1
1
1
1
1
1
1
1
1
1
1
1
1
1
1
1
1
1
1
1
1
1
1
1
1
1
1
1
1
1
1
1
1
1
1
1
1
1
1
1
1
1
1
1
1
1
1
1
1
1
1
1
1
1
1
1
1
1
1
1
1
1
1
1
1
1
1
1
1
1
1
1
1
1
1
1
1
1
1
1
1
1
1
1
1
1
1
1
1
1
1
1
1
1
1
1
1
1
1
1
1
1
1
1
1
1
1
1
1
1
1
1
1
1
1
1
1
1
1
1
1
1
1
1
1
1
1
1
1
1
1
1
1
1
1
1
1
1
1
1
1
1
1
1
1
1
1
1
1
1
1
1
1
1
1
1
1
1
1
1
1
1
1
1
1
1
1
1
1
1
1
1
1
1
1
1
1
1
1
1
1
1
1
1
1
1
1
1
1
1
1
1
1
1
1
1
1
1
1
1
1
1
1
1
1
1
1
1
1
1
1
1
1
1
1
1
1
1
1
1
1
1
1
1
1
1
1
1
1
1
1
1
1
1
1
1
1
1
1
1
1
1
1
1
1
1
1
1
1
1
1
1
1
1
1
1
1
1
1
1
1
1
1
1
1
1
1
1
1
1
1
1
1
1
1
1
1
1
1
1
1
1
1
1
1
1
1
1
1
1
1
1
1
1
1
1
1
1
1
1
1
1
1
1
1
1
1
1
1
1
1
1
1
1
1
1
1
1
1
1
1
1
1
1
1
1
1
1
1
1
1
1
1
1
1
1
1
1
1
1
1
1
1
1
1
1
1
1
1
1
1
1
1
1
1
1
1
1
1
1
1
1
1
1
1
1
1
1
1
1
1
1
1
1
1
1
1
1
1
1
1
1
1
1
1
1
1
1
1
1
1
1
1
1
1
1
1
1
1
1
1
1
1
1
1
1
1
1
1
1
1
1
1
1
1
1
1
1
1
1
1
1
1
1
1
1
1
1
1
1
1
1
1
1
1
1
1
1
1
1
1
1
1
1
1
1
1
1
1
1
1
1
1
1
1
1
1
1
1
1
1
1
1
1
1
1
1
1
1
1
1
1
1
1
1
1
1
1
1
1
1
1
1
1
1
1
1
1
1
1
1
1
1
1
1
1
1
1
1
1
1
1
1
1
1
1
1
1
1
1
1
1
1
1
1
1
1
1
1
1
1
1
1
1
1
1
1
1
1
1
1
1
1
1
1
1
1
1
1
1
1
1
1
1
1
1
1
1
1
1
1
1
1
1
1
1
1
1
1
1
1
1
1
1
1
1
1
1
1
1
1
1
1
1
1
1
1
1
1
1
1
1
1
1
1
1
1
1
1
1
1
1
1
1
1
1
1
1
1
1
1
1
1
1
1
1
1
1
1
1
1
1
1
1
1
1
1
1
1
1
1
1
1
1
1
1
1
1
1
1
1
1
1
1
1
1
1
1
1
1
1
1
1
1
1
1
1
1
1
1
1
1
1
1
1
1
1
1
1
1
1
1
1
1
1
1
1
1
1
1
1
1
1
1
1
1
1
1
1
1
1
1
1
1
1
1
1
1
1
1
1
1
1
1
1
1
1
1
1
1
1
1
1
1
1
1
1
1
1
1
1
1
1
1
1
1
1
1
1
1
1
1
1
1
1
1
1
1
1
1
1
1
1
1
1
1
1
1
1
1
1
1
1
1
1
1
1
1
1
1
1
1
1
1
1
1
1
1
1
1
1
1
1
1
1
1
1
1
1
1
1
1
1
1
1
1
1
1
1
1
1
1
1
1
1
1
1
1
1
1
1
1
1
1
1
1
1
1
1
1
1
1
1
1
1
1
1
1
1
1
1
1
1
1
1
1
1
1
1
1
1
1
1
1
1
1
1
1
1
1
1
1
1
1
1
1
1
1
1
1
1
1
1
1
1
1
1
1
1
1
1
1
1
1
1
1
1
1
1
1
1
1
1
1
1
1
1
1
1
1
1
1
1
1
1
1
1
1
1
1
1
1
1
1
1
1
1
1
1
1
1
1
1
1
1
1
1
1
1
1
1
1
1
1
1
1
1
1
1
1
1
1
1
1
1
1
1
1
1
1
1
1
1
1
1
1
1
1
1
1
1
1
1
1
1
1
1
1
1
1
1
1
1
1
1
1
1
1
1
1
1
1
1
1
1
1
1
1
1
1
1
1
1
1
1
1
1
1
1
1
1
1
1
1
1
1
1
1
1
1
1
1
1
1
1
1
1
1
1
1
1
1
1
1
1
1
1
1
1
1
1
1
1
1
1
1
1
1
1
1
1
1
1
1
1
1
1
1
1
1
1
1
1
1
1
1
1
1
1
1
1
1
1
1
1
1
1
1
1
1
1
1
1
1
1
1
1
1
1
1
1
1
1
1
1
1
1
1
1
1
1
1
1
1
1
1
1
1
1
1
1
1
1
1
1
1
1
1
1
1
1
1
1
1
1
1
1
1
1
1
1
1
1
1
1
1
1
1
1
1
1
1
1
1
1
1
2.04485
1.31862
1.03363
1.08037
1.08542
1.24731
1.48736
1.59951
1.68887
1.81878
1.88231
1.87932
1.85815
1.88332
1.99341
2.09258
2.09389
2.07063
2.05885
2.06234
2.06219
2.05114
2.03566
2.01225
1.99763
1.99838
2.00561
2.00451
1.99101
1.97433
1.95751
1.94429
1.93673
1.92733
1.91976
1.91935
1.91939
1.91021
1.8909
1.86945
1.8544
1.8523
1.8547
1.86263
1.87418
1.87747
1.87294
1.85099
1.80854
1.75485
1.71757
1.70614
1.70565
1.71302
1.72195
1.72273
1.72037
1.71058
1.68763
1.64635
1.58467
1.50604
1.4162
1.31582
1.20311
1.09013
1.01619
0.995982
0.992446
0.991245
0.991031
0.992796
0.995802
0.996176
0.996393
0.997152
0.998031
0.998791
0.999455
0.999884
1.00006
1.00013
1.00052
1.00215
1.00643
1.01153
1.01308
1.01312
1.0131
1.01298
1.01243
1.01082
1.00702
1.0021
1.00014
1
1
1
1
1
1
1
1
1
1
1
1
1
1
1
1
1
1
1
1
1
1
1
1
1
1
1
1
1
1
1
1
1
1
1
1
1
1
1
1
1
1
1
1
1
1
1
1
1
1
1
1
1
1
1
1
1
1
1
1
1
1
1
1
1
1
1
1
1
1
1
1
1
1
1
1
1
1
1
1
1
1
1
1
1
1
1
1
1
1
1
1
1
1
1
1
1
2.3371
1.90058
1.7365
1.61477
1.40256
1.31351
1.36107
1.39087
1.41068
1.4379
1.47135
1.52112
1.5588
1.61761
1.71144
1.80816
1.87166
1.89811
1.91823
1.94056
1.96039
1.96925
1.96806
1.95578
1.94904
1.95245
1.95916
1.95917
1.95094
1.93572
1.92164
1.91223
1.90635
1.89925
1.89149
1.88774
1.88403
1.87488
1.86051
1.84598
1.83774
1.83736
1.83937
1.84699
1.85367
1.85359
1.84739
1.82622
1.78536
1.73717
1.70612
1.69722
1.69788
1.7035
1.7058
1.70528
1.70207
1.69263
1.67166
1.63358
1.57534
1.49913
1.40994
1.30892
1.1921
1.07135
1.00129
0.991551
0.993212
0.993419
0.992461
0.992306
0.99351
0.994808
0.995121
0.995984
0.997049
0.998058
0.998819
0.999267
0.999455
0.999542
1.00003
1.00216
1.00699
1.012
1.01329
1.01331
1.01329
1.01311
1.01245
1.01063
1.0067
1.00192
1.00012
1
1
1
1
1
1
1
1
1
1
1
1
1
1
1
1
1
1
1
1
1
1
1
1
1
1
1
1
1
1
1
1
1
1
1
1
1
1
1
1
1
1
1
1
1
1
1
1
1
1
1
1
1
1
1
1
1
1
1
1
1
1
1
1
1
1
1
1
1
1
1
1
1
1
1
1
1
1
1
1
1
1
1
1
1
1
1
1
1
1
1
1
1
1
1
1
1
2.42861
2.14677
1.97317
1.81767
1.65782
1.5336
1.5156
1.47639
1.41379
1.36385
1.36775
1.38304
1.41311
1.4517
1.49379
1.54264
1.60372
1.65683
1.71251
1.75908
1.80417
1.83816
1.85924
1.86538
1.86846
1.86734
1.8653
1.86191
1.85559
1.83996
1.82337
1.8218
1.8222
1.82243
1.82408
1.82365
1.81528
1.80251
1.78854
1.77593
1.77218
1.77239
1.77589
1.78924
1.79822
1.79812
1.79335
1.77562
1.73945
1.69382
1.6634
1.65816
1.66218
1.66537
1.6634
1.65782
1.64899
1.63544
1.61379
1.57978
1.52985
1.46361
1.38315
1.28818
1.17396
1.05682
0.997449
0.991094
0.993279
0.994979
0.994906
0.995086
0.996155
0.996256
0.996404
0.996884
0.997433
0.99836
0.999172
0.999545
0.999655
0.999755
1.00033
1.00251
1.00756
1.01242
1.0135
1.01351
1.0135
1.01328
1.01251
1.01049
1.00628
1.00161
1.00008
1
1
1
1
1
1
1
1
1
1
1
1
1
1
1
1
1
1
1
1
1
1
1
1
1
1
1
1
1
1
1
1
1
1
1
1
1
1
1
1
1
1
1
1
1
1
1
1
1
1
1
1
1
1
1
1
1
1
1
1
1
1
1
1
1
1
1
1
1
1
1
1
1
1
1
1
1
1
1
1
1
1
1
1
1
1
1
1
1
1
1
1
1
1
1
1
1
2.46563
2.2688
2.13357
2.00837
1.84616
1.71018
1.6726
1.62923
1.55821
1.49507
1.49356
1.47872
1.43542
1.41301
1.42155
1.43689
1.44816
1.47009
1.52262
1.58875
1.63767
1.67565
1.70785
1.7401
1.77459
1.7844
1.78182
1.7754
1.76242
1.74137
1.72256
1.72116
1.72153
1.72318
1.72795
1.72897
1.72502
1.71635
1.70486
1.69359
1.68683
1.68385
1.68514
1.69396
1.70023
1.70124
1.70006
1.69239
1.67255
1.64066
1.61344
1.6053
1.60399
1.59821
1.58771
1.57548
1.56115
1.54313
1.51993
1.48919
1.44791
1.39411
1.32658
1.24253
1.13931
1.03824
0.993873
0.990878
0.993218
0.994521
0.99462
0.995374
0.996382
0.996799
0.99745
0.997712
0.997799
0.998472
0.999278
0.999489
0.999461
0.999508
1.00027
1.00302
1.0086
1.01304
1.01379
1.01381
1.01378
1.0135
1.01259
1.01027
1.00567
1.00122
1.00005
1
1
1
1
1
1
1
1
1
1
1
1
1
1
1
1
1
1
1
1
1
1
1
1
1
1
1
1
1
1
1
1
1
1
1
1
1
1
1
1
1
1
1
1
1
1
1
1
1
1
1
1
1
1
1
1
1
1
1
1
1
1
1
1
1
1
1
1
1
1
1
1
1
1
1
1
1
1
1
1
1
1
1
1
1
1
1
1
1
1
1
1
1
1
1
1
1
2.46727
2.32145
2.18628
2.09197
1.99397
1.88144
1.80557
1.73866
1.65611
1.59831
1.59214
1.57292
1.51886
1.47101
1.46384
1.44963
1.4264
1.42749
1.43811
1.45961
1.49057
1.54006
1.5893
1.62533
1.66668
1.68488
1.69637
1.70388
1.69953
1.68605
1.66782
1.65821
1.65325
1.64945
1.64814
1.64634
1.64142
1.63186
1.62244
1.61745
1.6129
1.6087
1.60949
1.61207
1.61161
1.61008
1.60731
1.60335
1.59167
1.57074
1.556
1.55252
1.54679
1.53134
1.51147
1.4903
1.46713
1.44147
1.41413
1.38528
1.3527
1.3117
1.25668
1.18468
1.09925
1.02175
0.991909
0.991393
0.99302
0.993244
0.993501
0.994793
0.996511
0.997824
0.998675
0.998709
0.99844
0.998642
0.999087
0.999105
0.999016
0.999146
1.00023
1.00379
1.01004
1.01383
1.01428
1.0143
1.01422
1.01378
1.01259
1.00979
1.00478
1.0008
1.00002
1
1
1
1
1
1
1
1
1
1
1
1
1
1
1
1
1
1
1
1
1
1
1
1
1
1
1
1
1
1
1
1
1
1
1
1
1
1
1
1
1
1
1
1
1
1
1
1
1
1
1
1
1
1
1
1
1
1
1
1
1
1
1
1
1
1
1
1
1
1
1
1
1
1
1
1
1
1
1
1
1
1
1
1
1
1
1
1
1
1
1
1
1
1
1
1
1
2.44905
2.33818
2.23915
2.14889
2.04915
1.95914
1.89938
1.84752
1.76882
1.69414
1.67327
1.63962
1.58947
1.54677
1.53517
1.51247
1.47272
1.44415
1.44213
1.44448
1.4442
1.44858
1.46806
1.49838
1.54429
1.59186
1.61583
1.63052
1.63734
1.63402
1.62883
1.62332
1.61508
1.6037
1.59374
1.58616
1.57704
1.56824
1.56056
1.55637
1.55455
1.55294
1.55178
1.54769
1.54258
1.53782
1.53668
1.5341
1.52393
1.50786
1.50249
1.50174
1.4912
1.46793
1.44078
1.41192
1.38043
1.34626
1.31269
1.28334
1.25627
1.22325
1.17749
1.12064
1.05956
1.00996
0.992102
0.991832
0.991812
0.991728
0.992253
0.994495
0.997467
0.999459
1.00012
0.999902
0.999024
0.998826
0.998793
0.998593
0.998414
0.998585
1.00009
1.00488
1.01173
1.01466
1.01489
1.01491
1.01475
1.01413
1.01261
1.00912
1.00368
1.00042
1.00001
1
1
1
1
1
1
1
1
1
1
1
1
1
1
1
1
1
1
1
1
1
1
1
1
1
1
1
1
1
1
1
1
1
1
1
1
1
1
1
1
1
1
1
1
1
1
1
1
1
1
1
1
1
1
1
1
1
1
1
1
1
1
1
1
1
1
1
1
1
1
1
1
1
1
1
1
1
1
1
1
1
1
1
1
1
1
1
1
1
1
1
1
1
1
1
1
1
2.42861
2.33608
2.24513
2.17386
2.10565
2.02537
1.94931
1.89821
1.83365
1.7781
1.74783
1.71035
1.64328
1.58754
1.57421
1.55313
1.51592
1.47857
1.46954
1.46085
1.44524
1.43114
1.43095
1.43122
1.43783
1.4699
1.50875
1.54287
1.57264
1.57481
1.57758
1.57775
1.57528
1.56756
1.555
1.5434
1.53382
1.52682
1.519
1.51242
1.50934
1.50611
1.49937
1.48988
1.48297
1.48199
1.48162
1.47831
1.4705
1.46278
1.46055
1.45537
1.43662
1.40863
1.37631
1.34246
1.3065
1.26897
1.23481
1.20821
1.18429
1.15223
1.11159
1.07017
1.03223
1.00377
0.99164
0.990154
0.990257
0.990413
0.991709
0.995327
0.999423
1.00156
1.00195
1.00119
0.999276
0.998478
0.99812
0.997775
0.997675
0.998031
1.00041
1.00678
1.01361
1.01548
1.01558
1.01557
1.01532
1.0145
1.01248
1.00806
1.00245
1.00016
1
1
1
1
1
1
1
1
1
1
1
1
1
1
1
1
1
1
1
1
1
1
1
1
1
1
1
1
1
1
1
1
1
1
1
1
1
1
1
1
1
1
1
1
1
1
1
1
1
1
1
1
1
1
1
1
1
1
1
1
1
1
1
1
1
1
1
1
1
1
1
1
1
1
1
1
1
1
1
1
1
1
1
1
1
1
1
1
1
1
1
1
1
1
1
1
1
1
2.41325
2.32864
2.25613
2.19339
2.12386
2.05188
1.99779
1.9505
1.87881
1.81403
1.78709
1.75408
1.70335
1.64729
1.62053
1.59354
1.55247
1.5206
1.51381
1.5046
1.48018
1.45077
1.43018
1.41626
1.40251
1.40002
1.41019
1.43643
1.47786
1.5106
1.52197
1.52653
1.52632
1.52137
1.51421
1.509
1.5049
1.49863
1.48932
1.47834
1.46976
1.46224
1.45276
1.44201
1.43557
1.43464
1.43297
1.42798
1.42521
1.42353
1.41752
1.40292
1.38103
1.35235
1.31818
1.28261
1.24616
1.21164
1.18626
1.16856
1.14314
1.10391
1.06601
1.0374
1.01564
0.999609
0.990842
0.989176
0.989231
0.989749
0.992336
0.997516
1.00196
1.00383
1.00388
1.00195
0.998873
0.997656
0.997112
0.996711
0.996667
0.997514
1.00142
1.00947
1.01541
1.01637
1.01643
1.0164
1.01602
1.01487
1.01203
1.00647
1.00129
1.00004
1
1
1
1
1
1
1
1
1
1
1
1
1
1
1
1
1
1
1
1
1
1
1
1
1
1
1
1
1
1
1
1
1
1
1
1
1
1
1
1
1
1
1
1
1
1
1
1
1
1
1
1
1
1
1
1
1
1
1
1
1
1
1
1
1
1
1
1
1
1
1
1
1
1
1
1
1
1
1
1
1
1
1
1
1
1
1
1
1
1
1
1
1
1
1
1
1
1
2.40752
2.33143
2.25802
2.19841
2.1472
2.08526
2.02011
1.96753
1.9107
1.85461
1.81983
1.78445
1.73119
1.68273
1.65675
1.63126
1.59284
1.55857
1.54851
1.53166
1.50229
1.46645
1.43578
1.41215
1.38823
1.37435
1.37952
1.39278
1.40693
1.42862
1.44802
1.45988
1.47064
1.46956
1.46501
1.46524
1.46706
1.46592
1.45917
1.44535
1.43171
1.42223
1.41168
1.40224
1.39585
1.39304
1.38967
1.38266
1.37707
1.37159
1.36053
1.345
1.32496
1.29729
1.26412
1.23019
1.19786
1.17143
1.15419
1.1322
1.09448
1.05588
1.0295
1.01384
1.00413
0.997663
0.992778
0.990394
0.990258
0.991503
0.995615
1.00059
1.00388
1.0051
1.00477
1.0016
0.997831
0.996682
0.996227
0.996015
0.99615
0.997712
1.0034
1.01248
1.01699
1.01743
1.01749
1.01744
1.01689
1.01517
1.01099
1.00438
1.00048
1.00001
1
1
1
1
1
1
1
1
1
1
1
1
1
1
1
1
1
1
1
1
1
1
1
1
1
1
1
1
1
1
1
1
1
1
1
1
1
1
1
1
1
1
1
1
1
1
1
1
1
1
1
1
1
1
1
1
1
1
1
1
1
1
1
1
1
1
1
1
1
1
1
1
1
1
1
1
1
1
1
1
1
1
1
1
1
1
1
1
1
1
1
1
1
1
1
1
1
1
2.40279
2.33372
2.26989
2.21095
2.14739
2.0947
2.04748
1.99662
1.92865
1.86304
1.83138
1.80562
1.76828
1.72267
1.68534
1.65245
1.61418
1.59144
1.58087
1.55846
1.52499
1.48734
1.46094
1.4404
1.41444
1.38781
1.38095
1.38263
1.37926
1.36567
1.36608
1.37454
1.39161
1.41043
1.41501
1.41575
1.41749
1.41747
1.41391
1.40171
1.38805
1.38204
1.37642
1.37021
1.36389
1.35856
1.35053
1.33806
1.32623
1.31617
1.30403
1.28928
1.2707
1.24518
1.21453
1.18415
1.15799
1.13676
1.11567
1.08498
1.04824
1.02015
1.00559
0.99897
0.996648
0.996132
0.99566
0.995317
0.995795
0.997998
1.00085
1.00316
1.00449
1.00466
1.00358
0.999373
0.995987
0.995343
0.995207
0.995203
0.99576
0.99865
1.00634
1.01546
1.01847
1.0187
1.01877
1.01865
1.01778
1.01502
1.00899
1.00224
1.0001
1
1
1
1
1
1
1
1
1
1
1
1
1
1
1
1
1
1
1
1
1
1
1
1
1
1
1
1
1
1
1
1
1
1
1
1
1
1
1
1
1
1
1
1
1
1
1
1
1
1
1
1
1
1
1
1
1
1
1
1
1
1
1
1
1
1
1
1
1
1
1
1
1
1
1
1
1
1
1
1
1
1
1
1
1
1
1
1
1
1
1
1
1
1
1
1
1
1
1
2.39994
2.33658
2.27238
2.21935
2.16227
2.09923
2.0433
2.00081
1.9499
1.89369
1.84626
1.80481
1.77049
1.74678
1.72199
1.69266
1.63873
1.60402
1.58954
1.56811
1.53856
1.50493
1.48411
1.46279
1.4368
1.40359
1.38572
1.3764
1.35871
1.3376
1.33322
1.33652
1.34413
1.35393
1.36407
1.36422
1.36383
1.36387
1.36132
1.35146
1.34205
1.34214
1.34326
1.34146
1.33684
1.32854
1.31194
1.29188
1.27688
1.26532
1.25385
1.24096
1.22386
1.20147
1.17605
1.15036
1.12677
1.10416
1.07626
1.04359
1.01717
1.00239
0.995261
0.993103
0.993391
0.995783
0.999417
1.00196
1.00323
1.00407
1.00519
1.00583
1.0057
1.00439
1.00048
0.996031
0.994771
0.99478
0.994846
0.995059
0.996209
1.00053
1.00992
1.01828
1.02007
1.02022
1.02028
1.02001
1.01844
1.01386
1.00597
1.00074
1.00001
1
1
1
1
1
1
1
1
1
1
1
1
1
1
1
1
1
1
1
1
1
1
1
1
1
1
1
1
1
1
1
1
1
1
1
1
1
1
1
1
1
1
1
1
1
1
1
1
1
1
1
1
1
1
1
1
1
1
1
1
1
1
1
1
1
1
1
1
1
1
1
1
1
1
1
1
1
1
1
1
1
1
1
1
1
1
1
1
1
1
1
1
1
1
1
1
1
1
1
2.38979
2.33471
2.27463
2.21983
2.16616
2.10462
2.05177
2.00122
1.94586
1.90524
1.86682
1.82792
1.78716
1.75712
1.73505
1.70654
1.66491
1.62331
1.60001
1.57628
1.54231
1.51609
1.50265
1.48483
1.46235
1.42864
1.40072
1.385
1.3635
1.34138
1.3289
1.32516
1.32564
1.32529
1.31839
1.30814
1.30147
1.3005
1.29903
1.29738
1.29776
1.29972
1.30186
1.30115
1.29675
1.28526
1.26493
1.24439
1.23069
1.22218
1.21512
1.20453
1.18722
1.16591
1.14492
1.12451
1.10288
1.07761
1.04878
1.02131
1.00292
0.99696
0.996686
0.998554
1.00255
1.00645
1.0078
1.00712
1.00572
1.00518
1.00588
1.00697
1.0064
1.00248
0.996518
0.994042
0.993824
0.993932
0.994345
0.995162
0.997408
1.00355
1.0142
1.02099
1.02195
1.02209
1.02211
1.02144
1.01838
1.01109
1.00275
1.00012
1
1
1
1
1
1
1
1
1
1
1
1
1
1
1
1
1
1
1
1
1
1
1
1
1
1
1
1
1
1
1
1
1
1
1
1
1
1
1
1
1
1
1
1
1
1
1
1
1
1
1
1
1
1
1
1
1
1
1
1
1
1
1
1
1
1
1
1
1
1
1
1
1
1
1
1
1
1
1
1
1
1
1
1
1
1
1
1
1
1
1
1
1
1
1
1
1
1
1
1
2.37075
2.32571
2.27159
2.21438
2.16412
2.11295
2.05781
2.0037
1.95508
1.91637
1.88306
1.84461
1.80085
1.77529
1.75472
1.72651
1.67455
1.62797
1.60502
1.58666
1.55636
1.53085
1.51836
1.49992
1.47319
1.44141
1.40815
1.38861
1.36992
1.34445
1.32653
1.31779
1.31284
1.30525
1.29235
1.27402
1.26133
1.25745
1.2572
1.25778
1.25771
1.25681
1.25416
1.25005
1.24301
1.23084
1.21475
1.2004
1.19062
1.18236
1.17135
1.1557
1.13706
1.11806
1.10048
1.08412
1.06763
1.04945
1.03068
1.01413
1.00422
1.00259
1.00466
1.01027
1.0132
1.01352
1.01287
1.01122
1.00937
1.00727
1.00595
1.00503
1.00253
0.997114
0.993168
0.99263
0.992764
0.993287
0.994096
0.99562
0.999298
1.00765
1.01885
1.02362
1.02409
1.02421
1.0241
1.02245
1.01665
1.00669
1.0007
1.00001
1
1
1
1
1
1
1
1
1
1
1
1
1
1
1
1
1
1
1
1
1
1
1
1
1
1
1
1
1
1
1
1
1
1
1
1
1
1
1
1
1
1
1
1
1
1
1
1
1
1
1
1
1
1
1
1
1
1
1
1
1
1
1
1
1
1
1
1
1
1
1
1
1
1
1
1
1
1
1
1
1
1
1
1
1
1
1
1
1
1
1
1
1
1
1
1
1
1
1
1
2.34255
2.30498
2.26079
2.2087
2.15443
2.10885
2.06736
2.01887
1.96003
1.91899
1.89713
1.87057
1.82667
1.77502
1.75386
1.73531
1.69493
1.64118
1.60757
1.59363
1.56704
1.54197
1.53021
1.51477
1.48665
1.44639
1.41218
1.39687
1.38415
1.3606
1.33846
1.326
1.31529
1.29821
1.27447
1.25291
1.24038
1.23415
1.2291
1.2256
1.22257
1.21529
1.20542
1.19698
1.18783
1.17674
1.16598
1.15737
1.15046
1.14098
1.1259
1.10693
1.08934
1.07382
1.05893
1.04524
1.03407
1.0239
1.01269
1.00512
1.00374
1.00436
1.00843
1.01308
1.01401
1.01402
1.01362
1.01248
1.01116
1.00926
1.00573
1.0003
0.994949
0.992159
0.991673
0.992045
0.992758
0.993621
0.994854
0.997213
1.00251
1.0131
1.02369
1.02646
1.0267
1.02678
1.02613
1.02199
1.01215
1.0024
1.00007
1
1
1
1
1
1
1
1
1
1
1
1
1
1
1
1
1
1
1
1
1
1
1
1
1
1
1
1
1
1
1
1
1
1
1
1
1
1
1
1
1
1
1
1
1
1
1
1
1
1
1
1
1
1
1
1
1
1
1
1
1
1
1
1
1
1
1
1
1
1
1
1
1
1
1
1
1
1
1
1
1
1
1
1
1
1
1
1
1
1
1
1
1
1
1
1
1
1
1
1
1
2.3085
2.27776
2.23892
2.19559
2.1516
2.10231
2.05966
2.02794
1.98574
1.93258
1.88889
1.87044
1.84379
1.80038
1.75371
1.72349
1.69469
1.65263
1.62001
1.60541
1.58771
1.55642
1.53511
1.51936
1.49149
1.44909
1.41805
1.40464
1.39341
1.37245
1.34874
1.33338
1.31864
1.29178
1.25803
1.23551
1.22138
1.21418
1.20929
1.20293
1.19352
1.18201
1.17077
1.16108
1.15073
1.13908
1.12953
1.12174
1.1114
1.09761
1.08213
1.06584
1.04961
1.03512
1.02241
1.01145
1.00491
1.00101
0.997697
0.996544
0.997309
1.00238
1.00931
1.01172
1.01207
1.012
1.01135
1.00989
1.00707
1.00274
0.996737
0.991059
0.989166
0.98956
0.990408
0.991492
0.993016
0.994793
0.996826
1.00009
1.00714
1.01949
1.02819
1.02952
1.02969
1.0296
1.02709
1.0184
1.00572
1.00036
1
1
1
1
1
1
1
1
1
1
1
1
1
1
1
1
1
1
1
1
1
1
1
1
1
1
1
1
1
1
1
1
1
1
1
1
1
1
1
1
1
1
1
1
1
1
1
1
1
1
1
1
1
1
1
1
1
1
1
1
1
1
1
1
1
1
1
1
1
1
1
1
1
1
1
1
1
1
1
1
1
1
1
1
1
1
1
1
1
1
1
1
1
1
1
1
1
1
1
1
1
1
2.27432
2.24613
2.21309
2.17637
2.14184
2.10014
2.05389
2.01845
1.98923
1.94908
1.90387
1.87042
1.83954
1.80141
1.7533
1.72065
1.69963
1.67291
1.63569
1.61232
1.59988
1.57372
1.53983
1.51422
1.48754
1.44938
1.42563
1.41339
1.40118
1.38031
1.35511
1.33468
1.31644
1.28702
1.25806
1.23952
1.22474
1.2148
1.20566
1.19128
1.17424
1.15718
1.14101
1.13
1.12104
1.1122
1.10372
1.09218
1.07505
1.05717
1.04255
1.0293
1.01534
1.00102
0.986778
0.976583
0.97544
0.976756
0.980173
0.984303
0.990991
1.00252
1.00885
1.00896
1.00878
1.00811
1.00577
1.00103
0.994924
0.989406
0.986911
0.987027
0.987977
0.989169
0.990569
0.992118
0.993973
0.99624
0.999202
1.00429
1.01454
1.02764
1.03267
1.03307
1.03318
1.03189
1.02474
1.01056
1.00118
1.00001
1
1
1
1
1
1
1
1
1
1
1
1
1
1
1
1
1
1
1
1
1
1
1
1
1
1
1
1
1
1
1
1
1
1
1
1
1
1
1
1
1
1
1
1
1
1
1
1
1
1
1
1
1
1
1
1
1
1
1
1
1
1
1
1
1
1
1
1
1
1
1
1
1
1
1
1
1
1
1
1
1
1
1
1
1
1
1
1
1
1
1
1
1
1
1
1
1
1
1
1
1
1
2.25258
2.21915
2.18294
2.15179
2.12365
2.08873
2.04633
2.01497
1.98607
1.94729
1.90336
1.86943
1.84068
1.80812
1.76191
1.71429
1.69515
1.68246
1.65671
1.62401
1.60034
1.57844
1.54674
1.50893
1.48226
1.45824
1.43513
1.41861
1.40461
1.38598
1.36223
1.33562
1.30679
1.27991
1.25969
1.24287
1.22673
1.21547
1.20209
1.18234
1.16057
1.1388
1.12149
1.11055
1.10263
1.09597
1.08714
1.07049
1.05051
1.03426
1.02188
1.01022
0.997224
0.98391
0.971029
0.965606
0.964858
0.965064
0.967588
0.973703
0.983378
0.991784
0.994916
0.995115
0.994799
0.993671
0.990664
0.986019
0.982996
0.982964
0.983883
0.985566
0.988076
0.990941
0.993566
0.995514
0.996796
0.998097
1.00114
1.00911
1.02416
1.03536
1.03708
1.03728
1.03678
1.03096
1.0163
1.00276
1.00006
1
1
1
1
1
1
1
1
1
1
1
1
1
1
1
1
1
1
1
1
1
1
1
1
1
1
1
1
1
1
1
1
1
1
1
1
1
1
1
1
1
1
1
1
1
1
1
1
1
1
1
1
1
1
1
1
1
1
1
1
1
1
1
1
1
1
1
1
1
1
1
1
1
1
1
1
1
1
1
1
1
1
1
1
1
1
1
1
1
1
1
1
1
1
1
1
1
1
1
1
1
1
1
2.23447
2.20756
2.16272
2.12815
2.10299
2.07214
2.03562
2.0062
1.9756
1.94147
1.90486
1.86158
1.82798
1.80597
1.77706
1.73478
1.69643
1.67894
1.66419
1.63509
1.59719
1.5723
1.54873
1.51546
1.48148
1.46404
1.44773
1.42326
1.4026
1.38482
1.36111
1.33005
1.29943
1.28244
1.2686
1.24952
1.22961
1.21499
1.19942
1.17725
1.15288
1.13229
1.1181
1.10835
1.1006
1.0922
1.07898
1.05941
1.03912
1.02395
1.01234
1.00069
0.988138
0.975815
0.965351
0.962312
0.96262
0.963401
0.964535
0.96777
0.973304
0.976732
0.978409
0.980131
0.981739
0.982145
0.981809
0.981426
0.981559
0.982175
0.983396
0.985339
0.987894
0.991094
0.994362
0.997055
0.999631
1.00268
1.00844
1.02123
1.0369
1.04186
1.04221
1.04209
1.03707
1.02222
1.00494
1.00017
1
1
1
1
1
1
1
1
1
1
1
1
1
1
1
1
1
1
1
1
1
1
1
1
1
1
1
1
1
1
1
1
1
1
1
1
1
1
1
1
1
1
1
1
1
1
1
1
1
1
1
1
1
1
1
1
1
1
1
1
1
1
1
1
1
1
1
1
1
1
1
1
1
1
1
1
1
1
1
1
1
1
1
1
1
1
1
1
1
1
1
1
1
1
1
1
1
1
1
1
1
1
1
1
2.17616
2.18553
2.16015
2.11644
2.08422
2.04993
2.0167
1.99224
1.9621
1.92678
1.898
1.86516
1.82217
1.79168
1.77344
1.7502
1.70982
1.67548
1.66139
1.63957
1.60142
1.56187
1.54064
1.51621
1.48637
1.46874
1.45612
1.43294
1.40213
1.37988
1.35465
1.32007
1.2966
1.28353
1.27274
1.25502
1.23302
1.21484
1.19653
1.17222
1.14681
1.12915
1.11674
1.10863
1.10112
1.09015
1.07346
1.05317
1.03381
1.01941
1.00788
0.997091
0.986947
0.977855
0.970716
0.965259
0.96331
0.963673
0.964924
0.968545
0.97364
0.975584
0.976447
0.977951
0.979976
0.981034
0.981336
0.9818
0.982842
0.984807
0.987848
0.991807
0.995345
0.99691
0.997313
0.997983
0.999829
1.00541
1.01864
1.03787
1.04734
1.04818
1.04818
1.04324
1.02778
1.00726
1.00032
1
1
1
1
1
1
1
1
1
1
1
1
1
1
1
1
1
1
1
1
1
1
1
1
1
1
1
1
1
1
1
1
1
1
1
1
1
1
1
1
1
1
1
1
1
1
1
1
1
1
1
1
1
1
1
1
1
1
1
1
1
1
1
1
1
1
1
1
1
1
1
1
1
1
1
1
1
1
1
1
1
1
1
1
1
1
1
1
1
1
1
1
1
1
1
1
1
1
1
1
1
1
1
1
1
1.99016
2.11181
2.12549
2.11079
2.07579
2.03529
1.99626
1.96921
1.94245
1.90944
1.88606
1.86198
1.82435
1.78252
1.76385
1.74706
1.71667
1.67616
1.65342
1.63199
1.59826
1.55798
1.53784
1.51942
1.49009
1.46967
1.45658
1.43655
1.40377
1.37303
1.34797
1.31714
1.29669
1.28374
1.2723
1.25771
1.23463
1.21318
1.19318
1.16822
1.14631
1.13173
1.12013
1.11275
1.10459
1.091
1.07276
1.05315
1.03587
1.02407
1.01441
1.00462
0.995856
0.990122
0.985686
0.981421
0.978411
0.975524
0.975124
0.976937
0.978676
0.977946
0.977456
0.978065
0.979757
0.980855
0.981081
0.981523
0.982928
0.985866
0.990229
0.994929
0.99858
1.00124
1.00319
1.00536
1.00984
1.02076
1.03999
1.05348
1.05543
1.05525
1.04959
1.03256
1.00908
1.00046
1
1
1
1
1
1
1
1
1
1
1
1
1
1
1
1
1
1
1
1
1
1
1
1
1
1
1
1
1
1
1
1
1
1
1
1
1
1
1
1
1
1
1
1
1
1
1
1
1
1
1
1
1
1
1
1
1
1
1
1
1
1
1
1
1
1
1
1
1
1
1
1
1
1
1
1
1
1
1
1
1
1
1
1
1
1
1
1
1
1
1
1
1
1
1
1
1
1
1
1
1
1
1
1
1
1
1.49324
1.89769
2.03717
2.06148
2.05471
2.03054
1.99361
1.95913
1.92694
1.88588
1.85967
1.846
1.82208
1.78214
1.75297
1.7376
1.71369
1.67281
1.64365
1.62307
1.59259
1.55241
1.53401
1.52169
1.49594
1.46982
1.45346
1.43233
1.40072
1.36454
1.34237