/*--------------------------------*- C++ -*----------------------------------*\
  =========                 |
  \\      /  F ield         | OpenFOAM: The Open Source CFD Toolbox
   \\    /   O peration     | Website:  https://openfoam.org
    \\  /    A nd           | Version:  7
     \\/     M anipulation  |
\*---------------------------------------------------------------------------*/
FoamFile
{
    version     2.0;
    format      ascii;
    class       volScalarField;
    location    "2.9";
    object      p;
}
// * * * * * * * * * * * * * * * * * * * * * * * * * * * * * * * * * * * * * //

dimensions      [1 -1 -2 0 0 0 0];

internalField   nonuniform List<scalar> 
4032
(
1
1
1
1
1
1
1
1
1
1
1
1.07147
6.77323
10.5881
10.7447
10.9437
11.132
11.3117
11.4799
11.6343
11.7731
11.8866
11.9752
12.0388
1
1
1
1
1
1
1
1
1
1
1
1.01363
6.61032
10.5518
10.7206
10.9173
11.1045
11.2801
11.4431
11.591
11.7224
11.8282
11.9088
11.9677
1
1
1
1
1
1
1
1
1
1
1
1.0003
6.26003
10.4931
10.6733
10.8648
11.05
11.2207
11.3781
11.5194
11.6444
11.7452
11.8203
11.8804
1
1
1
1
1
1
1
1
1
1
1
1
5.72715
10.3834
10.6057
10.7911
10.9746
11.1399
11.2915
11.4254
11.5399
11.6254
11.6796
11.7182
1
1
1
1
1
1
1
1
1
1
1
1
5.03889
10.1966
10.5184
10.6936
10.8697
11.0212
11.1554
11.2666
11.3569
11.4262
11.4705
11.5274
1
1
1
1
1
1
1
1
1
1
1
1
4.21921
9.89036
10.41
10.5742
10.7378
10.8712
10.9855
11.0789
11.1521
11.2071
11.2194
11.18
1
1
1
1
1
1
1
1
1
1
1
1
3.31063
9.42198
10.3326
10.479
10.6191
10.7229
10.7974
10.8464
10.8562
10.8106
10.7361
10.6869
1
1
1
1
1
1
1
1
1
1
1
1
2.32067
8.68781
10.2657
10.372
10.4863
10.5604
10.5926
10.5914
10.5293
10.432
10.2868
10.2558
1
1
1
1
1
1
1
1
1
1
1
1
1.38023
7.71895
10.2594
10.2311
10.3078
10.3461
10.3307
10.2773
10.1243
9.84939
9.07045
7.19187
1
1
1
1
1
1
1
1
1
1
1
1
1.01878
6.38526
9.9247
9.91067
10.0061
10.0514
10.017
9.91236
9.6724
9.20015
8.39328
6.33506
1
1
1
1
1
1
1
1
1
1
1
1
0.999973
4.59664
9.44492
9.79912
9.86286
9.83277
9.74721
9.57137
9.2622
8.68986
7.84075
5.90607
1
1
1
1
1
1
1
1
1
1
1
1
0.999991
2.74159
8.60747
9.65629
9.64312
9.60541
9.48703
9.2488
8.87622
8.29869
7.37683
5.7855
1
1
1
1
1
1
1
1
1
1
1
1
0.999998
1.29195
7.43766
9.74692
9.5001
9.36408
9.20288
8.93897
8.53981
7.98603
7.05551
5.84449
1
1
1
1
1
1
1
1
1
1
1
1
1
1.00906
5.5821
9.04278
9.11373
9.07935
8.91913
8.65005
8.27106
7.70473
6.87059
5.91627
1
1
1
1
1
1
1
1
1
1
1
1
1
0.999909
3.05418
8.23886
9.01034
8.93513
8.74694
8.45439
8.07537
7.50729
6.79108
6.01061
1
1
1
1
1
1
1
1
1
1
1
1
1
0.999978
1.31479
6.82574
8.97166
8.78851
8.56699
8.25279
7.88454
7.35512
6.73771
6.07451
1
1
1
1
1
1
1
1
1
1
1
1
1
0.999996
1.00872
4.44583
8.40454
8.54839
8.36527
8.09307
7.72975
7.256
6.71173
6.12885
1
1
1
1
1
1
1
1
1
1
1
1
1
1
0.999958
1.77104
7.39572
8.55129
8.2758
7.98997
7.61279
7.16492
6.6674
6.14691
1
1
1
1
1
1
1
1
1
1
1
1
1
1
0.99999
1.04845
5.23623
8.22477
8.09112
7.84194
7.49546
7.07519
6.62054
6.15537
1
1
1
1
1
1
1
1
1
1
1
1
1
1
0.999998
1.00011
2.20205
7.29688
8.08212
7.77524
7.42754
7.03312
6.62306
6.19483
1
1
1
1
1
1
1
1
1
1
1
1
1
1
1
1
1.10786
5.26329
7.88567
7.66684
7.33796
6.98363
6.60767
6.20393
1
1
1
1
1
1
1
1
1
1
1
1
1
1
1
1
1.0009
2.19236
6.81414
7.65388
7.30771
6.96903
6.60626
6.22432
1
1
1
1
1
1
1
1
1
1
1
1
1
1
1
1
1
1.10449
4.66592
7.4671
7.25068
6.92114
6.57697
6.23071
1
1
1
1
1
1
1
1
1
1
1
1
1
1
1
1
1
1.00108
1.90893
6.1575
7.22866
6.88657
6.58214
6.26473
1
1
1
1
1
1
1
1
1
1
1
1
1
1
1
1
1
1
1.06118
3.53042
6.80735
6.89174
6.60674
6.30621
1
1
1
1
1
1
1
1
1
1
1
1
1
1
1
1
1
1
1.00065
1.44683
5.08807
6.92623
6.64868
6.35084
1
1
1
1
1
1
1
1
1
1
1
1
1
1
1
1
1
1
1
1.01697
2.32964
5.91497
6.65824
6.3635
1
1
1
1
1
1
1
1
1
1
1
1
1
1
1
1
1
1
1
1.00014
1.12797
3.55128
6.22965
6.40823
1
1
1
1
1
1
1
1
1
1
1
1
1
1
1
1
1
1
1
1
1.00237
1.47341
4.5527
6.30383
1
1
1
1
1
1
1
1
1
1
1
1
1
1
1
1
1
1
1
1
1.00001
1.02002
2.04263
5.18841
1
1
1
1
1
1
1
1
1
1
1
1
1
1
1
1
1
1
1
1
1
1.0002
1.08416
2.7306
1
1
1
1
1
1
1
1
1
1
1
1
1
1
1
1
1
1
1
1
1
1
1.00142
1.22597
1
1
1
1
1
1
1
1
1
1
1
1
1
1
1
1
1
1
1
1
1
1
1.00001
1.00642
1
1
1
1
1
1
1
1
1
1
1
1
1
1
1
1
1
1
1
1
1
1
1
1.00004
1
1
1
1
1
1
1
1
1
1
1
1
1
1
1
1
1
1
1
1
1
1
1
1
1
1
1
1
1
1
1
1
1
1
1
1
1
1
1
1
1
1
1
1
1
1
1
1
1
1
1
1
1
1
1
1
1
1
1
1
1
1
1
1
1
1
1
1
1
1
1
1
1
1
1
1
1
1
1
1
1
1
1
1
1
1
1
1
1
1
1
1
1
1
1
1
1
1
1
1
1
1
1
1
1
1
1
1
1
1
1
1
1
1
1
1
1
1
1
1
1
1
1
1
1
1
1
1
1
1
1
1
1
1
1
1
1
1
1
1
1
1
1
1
1.58308
0.377168
0.185865
0.171322
0.201861
0.240388
0.340597
0.478976
0.644732
0.777987
0.896546
1.00347
1.07236
1.12803
1.19324
1.26282
1.30461
1.29686
1.28133
1.26043
1.25857
1.26794
1.29336
1.31755
1.31639
1.31006
1.30672
1.31004
1.31741
1.33186
1.34525
1.34456
1.34038
2.59032
5.82314
6.37718
6.34869
6.32404
6.27076
6.2012
6.12453
6.03347
5.90496
5.79187
5.70578
5.62832
5.53926
5.42485
5.28732
5.14398
5.0137
4.90853
4.83568
4.78364
4.7143
4.62148
4.52212
4.41945
4.32732
4.25028
4.19586
4.16008
4.10929
4.0435
3.97296
3.89359
3.80391
3.71044
3.62532
3.55198
3.488
3.43081
3.37862
3.33063
3.28645
3.24446
3.20073
3.14527
3.06703
2.97602
2.91042
2.86945
2.83466
2.80318
2.77652
2.74748
2.71553
2.66728
2.57719
2.47827
2.42902
2.40006
2.37328
2.35033
2.3382
2.29532
2.78058
1.42955
0.871309
0.664811
0.578361
0.521062
0.504807
0.501654
0.520187
0.565281
0.632261
0.72082
0.826297
0.924955
1.00011
1.06703
1.14474
1.19996
1.21324
1.22386
1.24121
1.26009
1.28077
1.30364
1.31949
1.3232
1.32109
1.30893
1.30354
1.30818
1.32012
1.33464
1.38344
2.40922
5.72247
6.50659
6.31321
6.16932
6.14097
6.12032
6.08679
5.9931
5.84983
5.72585
5.63908
5.57283
5.50305
5.41026
5.29791
5.17258
5.0473
4.93686
4.84583
4.77037
4.70255
4.62557
4.53767
4.44091
4.3374
4.2518
4.18458
4.12744
4.07341
4.01945
3.9597
3.89297
3.8177
3.73072
3.64035
3.56008
3.49157
3.43133
3.3767
3.32577
3.27695
3.22956
3.18281
3.13293
3.07068
2.99383
2.92223
2.87186
2.83487
2.8024
2.77117
2.7385
2.70046
2.65177
2.58281
2.50214
2.44134
2.40534
2.37814
2.35416
2.33548
2.28885
3.63535
2.41475
1.72112
1.2688
1.00041
0.817887
0.708889
0.648158
0.585838
0.590875
0.629488
0.685102
0.747721
0.802421
0.857645
0.907384
0.97853
1.08494
1.16324
1.21949
1.27118
1.29065
1.29301
1.30188
1.32163
1.33536
1.33892
1.33462
1.31243
1.29287
1.29477
1.35546
1.68325
2.50081
4.62009
6.28319
6.41158
6.27283
6.1596
6.10032
6.07119
5.97831
5.8573
5.74274
5.64155
5.55068
5.45987
5.36073
5.26296
5.16835
5.07541
4.97906
4.87457
4.77002
4.6816
4.60262
4.52932
4.45744
4.38211
4.29547
4.19577
4.10388
4.03755
3.98264
3.92986
3.87472
3.81459
3.7464
3.66843
3.58691
3.50997
3.44115
3.38111
3.32757
3.27606
3.2223
3.16533
3.10766
3.05389
3.00131
2.94424
2.8861
2.83831
2.79886
2.76104
2.72094
2.67385
2.61827
2.56337
2.51583
2.46885
2.42253
2.38595
2.35643
2.33073
2.28199
4.24316
3.12667
2.38762
1.92181
1.51998
1.24003
1.08393
0.970261
0.845835
0.780587
0.759349
0.736393
0.718977
0.718969
0.730568
0.748394
0.792056
0.896205
1.01457
1.09706
1.15823
1.20102
1.22148
1.24525
1.282
1.32693
1.35263
1.35226
1.33567
1.30624
1.33792
1.62887
2.4814
3.00371
3.45493
4.70584
5.75948
6.27794
6.27817
6.14202
6.01388
5.88047
5.78039
5.70288
5.63463
5.53754
5.4261
5.31615
5.22111
5.14254
5.06362
4.97879
4.88223
4.77073
4.65925
4.57368
4.50456
4.44214
4.37941
4.3076
4.21982
4.11406
4.01245
3.94069
3.88754
3.8385
3.78913
3.73494
3.67313
3.60295
3.52585
3.4454
3.36972
3.30695
3.25576
3.20659
3.15456
3.10378
3.05829
3.01374
2.96365
2.90416
2.84372
2.79383
2.74935
2.70082
2.64391
2.58663
2.54623
2.5159
2.48394
2.44447
2.39959
2.35919
2.32928
2.27511
4.71213
3.74162
2.97856
2.46544
2.02901
1.66025
1.46024
1.30195
1.16578
1.04429
0.927056
0.848552
0.805994
0.779249
0.748082
0.737185
0.738654
0.761169
0.819502
0.911167
0.99829
1.07273
1.13718
1.17261
1.21634
1.26518
1.30112
1.31267
1.31981
1.35996
1.64289
2.47981
3.17059
3.27269
3.26735
3.49195
4.34126
5.4692
6.02138
6.1187
6.05271
5.90899
5.79671
5.70392
5.64768
5.56271
5.43234
5.29159
5.18982
5.11588
5.04599
4.9725
4.8906
4.7869
4.66162
4.55655
4.48706
4.42773
4.36792
4.30332
4.23085
4.14021
4.02777
3.92167
3.85006
3.79826
3.75139
3.7065
3.65794
3.60396
3.5436
3.47124
3.38201
3.28525
3.20719
3.1592
3.12536
3.09521
3.06545
3.03075
2.98783
2.92925
2.85172
2.77723
2.71871
2.66401
2.61143
2.57415
2.54792
2.52155
2.49253
2.45744
2.41164
2.35911
2.32039
2.26165
5.00744
4.17658
3.48194
2.92466
2.46778
2.10278
1.84412
1.61136
1.42334
1.31069
1.19953
1.05875
0.988378
0.958017
0.905463
0.837276
0.787124
0.780486
0.788563
0.799422
0.825916
0.871431
0.943051
1.01755
1.07862
1.14253
1.21305
1.24143
1.29721
1.60604
2.41475
3.1587
3.32638
3.34732
3.33382
3.29581
3.42537
4.08037
5.10295
5.73756
5.91101
5.92453
5.83715
5.72181
5.62807
5.53474
5.39737
5.25535
5.1554
5.07451
5.01061
4.94764
4.87489
4.78815
4.66847
4.53783
4.45299
4.39338
4.33986
4.28663
4.22764
4.15794
4.06431
3.94046
3.82508
3.75216
3.70091
3.65909
3.62481
3.58546
3.5386
3.48187
3.40323
3.29331
3.1882
3.13958
3.11087
3.08442
3.06263
3.0367
3.00173
2.95481
2.87335
2.76156
2.67199
2.61838
2.5879
2.56645
2.54789
2.52647
2.50167
2.47091
2.42652
2.3624
2.30352
2.23986
5.24537
4.49164
3.87236
3.35321
2.85127
2.46938
2.19726
1.94774
1.70812
1.54834
1.43365
1.29411
1.15452
1.0908
1.04641
0.992908
0.938407
0.876776
0.817893
0.808974
0.811308
0.827763
0.852763
0.879419
0.905241
0.955233
1.02997
1.11873
1.41585
2.22338
2.98778
3.24013
3.34988
3.34303
3.33821
3.29111
3.24779
3.30428
3.69498
4.55801
5.44427
5.69983
5.78066
5.72686
5.6206
5.51855
5.36453
5.20967
5.10154
5.02433
4.96754
4.91802
4.85083
4.77405
4.67485
4.5401
4.42043
4.35312
4.30435
4.26128
4.211
4.15544
4.08475
3.978
3.83479
3.72969
3.68041
3.64293
3.60679
3.56603
3.51891
3.46498
3.40027
3.31239
3.20399
3.13653
3.10387
3.07427
3.04939
3.02802
2.99791
2.95726
2.87995
2.74752
2.64197
2.60426
2.58226
2.56284
2.54676
2.52699
2.50405
2.47602
2.43118
2.35185
2.2799
2.22722
5.40833
4.74378
4.17173
3.67388
3.17671
2.80893
2.52227
2.24406
1.97206
1.79691
1.65719
1.53669
1.40201
1.24647
1.16602
1.14149
1.11029
1.05208
0.961517
0.883633
0.854746
0.850643
0.856975
0.85371
0.848259
0.855698
0.890722
1.13452
1.92467
2.64076
2.89717
3.00516
3.14715
3.18768
3.22747
3.24762
3.22231
3.17141
3.14543
3.36769
4.14905
5.08333
5.54304
5.65827
5.61637
5.48983
5.33995
5.19711
5.06668
4.97837
4.91429
4.86379
4.81137
4.74267
4.66543
4.56374
4.43187
4.32011
4.25643
4.20684
4.17053
4.12758
4.07344
4.00171
3.89843
3.76943
3.65933
3.58855
3.53827
3.49908
3.46502
3.42528
3.38256
3.33096
3.25282
3.15368
3.09642
3.06871
3.04671
3.02018
2.98541
2.93952
2.86731
2.75744
2.65285
2.60594
2.58167
2.56053
2.54089
2.52097
2.49982
2.47334
2.4252
2.3291
2.25798
2.21872
5.53698
4.9458
4.40716
3.93357
3.49158
3.10211
2.78666
2.50225
2.25688
2.0561
1.85222
1.70823
1.61151
1.49825
1.35965
1.24369
1.20753
1.17022
1.11135
1.04719
0.982438
0.916228
0.874446
0.85711
0.85693
0.882092
1.05727
1.68288
2.35641
2.50041
2.53544
2.58113
2.69342
2.83537
2.95265
3.04849
3.08203
3.07073
3.06837
3.05343
3.17757
3.76821
4.62875
5.29892
5.44324
5.42099
5.30575
5.20131
5.09445
4.98067
4.88167
4.8116
4.75232
4.69099
4.62585
4.55624
4.46373
4.33773
4.22712
4.16756
4.11886
4.07552
4.03909
3.99045
3.92999
3.83138
3.67881
3.5562
3.49823
3.45665
3.4184
3.38791
3.35929
3.32341
3.2762
3.20188
3.10919
3.03859
2.99408
2.95839
2.9223
2.88193
2.83636
2.77728
2.70046
2.62491
2.58806
2.56876
2.55065
2.52892
2.50159
2.46506
2.41012
2.3278
2.26172
2.21138
5.61658
5.08453
4.60554
4.15116
3.71211
3.35887
3.04689
2.73175
2.47919
2.28512
2.0887
1.87768
1.75632
1.676
1.5639
1.43835
1.33461
1.26287
1.22348
1.18913
1.14481
1.07065
0.962248
0.924976
0.936857
1.06446
1.58776
2.31705
2.48586
2.4553
2.42026
2.39008
2.38313
2.4213
2.48509
2.56634
2.67882
2.78651
2.89014
2.91874
2.92505
3.00373
3.35655
4.1531
4.8043
5.16943
5.2362
5.19299
5.12474
5.03257
4.90898
4.77871
4.68393
4.62141
4.56752
4.51578
4.45621
4.37218
4.24264
4.12767
4.06892
4.02389
3.99108
3.95633
3.90652
3.83715
3.72292
3.57699
3.47687
3.42589
3.38944
3.35709
3.32923
3.29745
3.26143
3.21433
3.13438
3.03194
2.9603
2.91613
2.87766
2.83973
2.80525
2.77419
2.73555
2.67678
2.60491
2.55211
2.51845
2.48787
2.45509
2.41719
2.37609
2.33273
2.29123
2.22498
5.67864
5.20817
4.76154
4.32961
3.93114
3.57997
3.25257
2.9391
2.7011
2.49541
2.29117
2.07474
1.93814
1.82341
1.7117
1.61494
1.52432
1.42468
1.31494
1.26606
1.24745
1.19702
1.117
1.06467
1.16529
1.67447
2.3645
2.63148
2.58387
2.51192
2.4706
2.4334
2.38509
2.31736
2.28568
2.27484
2.30343
2.3758
2.47613
2.57175
2.64511
2.66994
2.71105
2.95374
3.54362
4.35207
4.87163
5.02232
5.13074
5.06229
4.9473
4.7807
4.62791
4.56572
4.51831
4.48257
4.43451
4.37173
4.27262
4.12874
4.02804
3.97606
3.93262
3.89424
3.84955
3.79513
3.71984
3.61232
3.49361
3.41191
3.36575
3.33101
3.29796
3.26449
3.22998
3.19087
3.13423
3.04927
2.95445
2.88835
2.84723
2.81534
2.78934
2.76593
2.74065
2.7019
2.62877
2.54291
2.49092
2.45636
2.4222
2.38428
2.35241
2.32864
2.3069
2.25138
5.74873
5.3123
4.8921
4.47625
4.10055
3.76718
3.44951
3.14494
2.89332
2.67822
2.47654
2.28498
2.13579
1.992
1.84807
1.7406
1.67016
1.59501
1.49939
1.38453
1.2995
1.26917
1.24666
1.35928
1.92535
2.65244
2.8609
2.78246
2.68635
2.62488
2.58577
2.52968
2.46381
2.3758
2.28835
2.25658
2.2417
2.22821
2.22702
2.24425
2.26768
2.29674
2.31483
2.34896
2.50542
2.96593
3.79372
4.43731
4.86779
4.9419
4.92236
4.78023
4.60787
4.52689
4.47555
4.442
4.40334
4.34775
4.27626
4.16159
4.02267
3.93426
3.88161
3.83267
3.78346
3.73341
3.68008
3.61354
3.52471
3.42613
3.3528
3.30635
3.26801
3.23055
3.19233
3.1522
3.10697
3.04828
2.97106
2.89289
2.83748
2.80132
2.77445
2.75096
2.72786
2.69699
2.6381
2.54753
2.47088
2.42543
2.39149
2.36528
2.34606
2.32735
2.30998
2.26262
5.79115
5.38894
4.98726
4.60474
4.2648
3.93874
3.6141
3.33543
3.09783
2.86883
2.6397
2.46608
2.31536
2.16531
2.02544
1.89828
1.7753
1.69609
1.63799
1.54357
1.43342
1.38225
1.49698
2.10493
2.97968
3.18407
3.08416
2.94683
2.84442
2.78951
2.72672
2.65694
2.58868
2.51369
2.41426
2.31812
2.26197
2.22344
2.19491
2.17653
2.16502
2.14189
2.1062
2.06816
2.06139
2.11773
2.40871
3.03935
3.89056
4.45848
4.71676
4.71713
4.62012
4.51672
4.44406
4.38985
4.34934
4.30442
4.24235
4.15656
4.0414
3.91915
3.83661
3.77763
3.72513
3.67742
3.63401
3.58944
3.53274
3.45225
3.35873
3.28757
3.24059
3.20007
3.15892
3.11636
3.07313
3.02712
2.97171
2.90536
2.84437
2.80099
2.76633
2.7327
2.69766
2.6594
2.61215
2.54342
2.46468
2.40725
2.37645
2.35696
2.34014
2.32339
2.30809
2.26163
5.84069
5.46807
5.08925
4.73225
4.41228
4.09614
3.77751
3.51466
3.27156
3.04122
2.81284
2.64302
2.47542
2.30756
2.1662
2.06259
1.94567
1.80714
1.70156
1.64208
1.59142
1.72272
2.3871
3.29786
3.53047
3.42987
3.27829
3.11811
3.01044
2.94844
2.88818
2.81896
2.74915
2.66991
2.56514
2.43999
2.34445
2.28774
2.23847
2.19287
2.15131
2.11881
2.09575
2.06068
1.98735
1.92735
1.91718
1.99844
2.3275
3.03357
3.79839
4.39793
4.45774
4.49772
4.43736
4.35068
4.28254
4.21834
4.15778
4.10177
4.02946
3.92508
3.81484
3.73532
3.67926
3.6333
3.59376
3.55607
3.51493
3.45907
3.37465
3.28014
3.21447
3.16926
3.12837
3.08796
3.0478
3.00616
2.95844
2.90003
2.8393
2.79195
2.754
2.71605
2.67355
2.62565
2.57399
2.51918
2.46176
2.41491
2.38701
2.3658
2.34418
2.3219
2.30495
2.26091
5.88365
5.531
5.17965
4.85519
4.54156
4.22592
3.93518
3.68187
3.43612
3.188
2.98
2.80328
2.63143
2.46009
2.30431
2.18329
2.07971
1.95381
1.82788
1.75907
1.91357
2.61788
3.6308
3.85612
3.72217
3.58009
3.45978
3.31559
3.1796
3.09969
3.03066
2.95737
2.88085
2.80102
2.71372
2.60585
2.47641
2.37353
2.30757
2.25374
2.20411
2.16049
2.11916
2.07135
2.01062
1.9318
1.88491
1.84716
1.82756
1.92119
2.2818
3.04213
3.73052
4.23321
4.35061
4.32986
4.25881
4.17113
4.10316
4.03801
3.97158
3.90642
3.81292
3.71344
3.64598
3.59815
3.55992
3.52446
3.48662
3.44053
3.37573
3.28247
3.19443
3.13754
3.09666
3.06078
3.02543
2.9878
2.94372
2.88678
2.81999
2.76536
2.72643
2.6896
2.64904
2.60312
2.55343
2.50386
2.45789
2.42026
2.39352
2.37054
2.3483
2.3246
2.29553
2.21991
5.94274
5.60824
5.27669
4.96759
4.66193
4.35168
4.08269
3.82811
3.5817
3.33092
3.139
2.94874
2.77201
2.59491
2.45957
2.32248
2.17568
2.06327
1.99921
2.2011
3.02434
3.90656
4.14925
4.0479
3.90747
3.79816
3.68514
3.54477
3.36891
3.24224
3.15357
3.06868
2.98458
2.90428
2.8265
2.74002
2.62892
2.50287
2.40208
2.3325
2.27545
2.22173
2.17002
2.11829
2.06361
1.99538
1.91386
1.841
1.79702
1.77263
1.76321
1.87372
2.27986
2.98759
3.65434
4.06095
4.1427
4.11823
4.08897
4.00744
3.92176
3.86372
3.79489
3.71079
3.64342
3.5882
3.53519
3.49064
3.45474
3.42039
3.36568
3.27993
3.19193
3.12457
3.07531
3.03717
3.00202
2.96561
2.92417
2.86921
2.79824
2.73312
2.68644
2.6491
2.61442
2.58099
2.54723
2.50989
2.4648
2.41765
2.38999
2.37302
2.35522
2.3273
2.28508
2.18688
5.99239
5.677
5.36931
5.06172
4.75305
4.46782
4.20992
3.95766
3.70062
3.4735
3.28121
3.08886
2.90197
2.72899
2.59094
2.44034
2.29863
2.23858
2.51297
3.506
4.43449
4.57934
4.40863
4.20094
4.08214
3.98496
3.86722
3.73304
3.56711
3.39483
3.27196
3.17733
3.09091
3.00881
2.9285
2.84471
2.74845
2.63237
2.51332
2.42213
2.35317
2.29182
2.23368
2.17627
2.11936
2.05973
1.99367
1.91981
1.84484
1.77808
1.72891
1.70619
1.70208
1.81468
2.2367
2.86212
3.54267
3.79058
3.92616
3.91668
3.8854
3.83809
3.76668
3.69982
3.64202
3.58549
3.52759
3.47347
3.41646
3.35238
3.29028
3.23444
3.17991
3.12252
3.0643
3.01779
2.97959
2.93972
2.89446
2.84354
2.78418
2.71706
2.65787
2.61753
2.5886
2.56397
2.5403
2.51124
2.47145
2.42893
2.39067
2.34851
2.30605
2.26842
2.22776
2.15058
6.0406
5.73683
5.44133
5.14358
4.84567
4.57974
4.32334
4.07535
3.8245
3.62022
3.41463
3.22559
3.02701
2.87302
2.70174
2.55258
2.52023
2.8933
4.01185
4.9912
4.98783
4.81106
4.58047
4.3598
4.2287
4.12532
4.00586
3.88151
3.74219
3.5748
3.41061
3.28575
3.18739
3.09919
3.01388
2.92854
2.84071
2.74495
2.63497
2.51789
2.41995
2.34593
2.2836
2.22617
2.17071
2.11636
2.06083
2.00218
1.9371
1.8623
1.78261
1.7097
1.66431
1.64006
1.64743
1.75558
2.1558
2.75933
3.37081
3.67902
3.70655
3.73662
3.73127
3.67308
3.62022
3.56703
3.50553
3.44187
3.36854
3.29505
3.23709
3.19415
3.1579
3.11812
3.0651
3.00512
2.95161
2.90653
2.86663
2.82116
2.76571
2.70127
2.65039
2.6154
2.57906
2.54287
2.51262
2.48772
2.46654
2.44419
2.40234
2.33937
2.27564
2.22197
2.17857
2.12016
6.06169
5.77818
5.49207
5.20634
4.94365
4.68718
4.43346
4.17511
3.95584
3.74982
3.54544
3.33912
3.15782
2.98149
2.81328
2.82168
3.32464
4.49503
5.40801
5.4428
5.25065
5.02124
4.78936
4.5449
4.37472
4.25666
4.14499
4.02611
3.89768
3.75392
3.59182
3.42701
3.28669
3.1753
3.08035
2.99355
2.91225
2.83263
2.74637
2.64569
2.53134
2.41976
2.32896
2.25691
2.19677
2.14509
2.09976
2.05674
2.00853
1.94952
1.87777
1.79092
1.71162
1.64634
1.61188
1.59806
1.60852
1.72811
2.08623
2.68458
3.15723
3.50254
3.60305
3.61939
3.60088
3.54102
3.47563
3.40044
3.31054
3.23351
3.1885
3.15898
3.1337
3.10215
3.05472
2.9956
2.93856
2.88072
2.81556
2.75052
2.69475
2.66955
2.65297
2.62088
2.57357
2.53322
2.50329
2.47709
2.44897
2.40877
2.35294
2.28853
2.2319
2.18363
2.1489
2.1131
6.14647
5.86032
5.5774
5.30388
5.04983
4.79664
4.54128
4.29538
4.08309
3.86912
3.66008
3.45174
3.27486
3.08628
3.16685
3.93681
5.20068
5.86277
5.9001
5.64463
5.43949
5.2503
5.04414
4.79645
4.54479
4.38578
4.26523
4.14693
4.02146
3.89
3.74769
3.58767
3.42025
3.27152
3.15321
3.05576
2.97004
2.89181
2.81711
2.73825
2.64549
2.53579
2.4202
2.31746
2.23808
2.1769
2.12531
2.07964
2.0357
1.98771
1.92621
1.84519
1.76765
1.70348
1.65702
1.61608
1.58293
1.561
1.56465
1.68051
2.0013
2.54813
3.00484
3.34573
3.47766
3.49383
3.47025
3.38589
3.27904
3.21081
3.16792
3.12155
3.08282
3.05106
3.02189
2.98929
2.93667
2.85951
2.78036
2.71642
2.67309
2.63813
2.59963
2.56781
2.54221
2.51835
2.49204
2.46206
2.42668
2.38153
2.32161
2.24451
2.18455
2.15251
2.14088
2.11832
6.2261
5.94876
5.65634
5.39309
5.13947
4.88597
4.62848
4.40626
4.18998
3.97564
3.74923
3.56474
3.38043
3.52692
4.52885
6.15679
6.48668
6.25979
5.95397
5.73916
5.60643
5.45997
5.2611
5.02273
4.74441
4.52195
4.37537
4.24822
4.12085
3.98907
3.85406
3.71161
3.5564
3.39744
3.25555
3.13754
3.0356
2.94384
2.86072
2.78418
2.70674
2.61639
2.50823
2.39851
2.3107
2.24317
2.18425
2.12784
2.0725
2.01576
1.95065
1.87179
1.79415
1.73707
1.70114
1.6661
1.63022
1.59057
1.55561
1.50937
1.49815
1.59159
1.92464
2.41567
2.9193
3.19412
3.31484
3.30322
3.26992
3.2343
3.17291
3.11199
3.06741
3.03217
2.99148
2.93064
2.86129
2.80319
2.75231
2.70839
2.6647
2.61747
2.57351
2.54239
2.51715
2.49161
2.46533
2.43601
2.3978
2.3512
2.28587
2.20926
2.16097
2.14435
2.13535
2.10874
6.18545
6.02164
5.72648
5.46951
5.21895
4.95926
4.72633
4.50761
4.29141
4.05295
3.86197
3.70404
3.97185
5.1598
6.71103
7.29759
6.9713
6.45237
6.07041
5.89193
5.78259
5.64656
5.44716
5.21779
4.94953
4.69138
4.51119
4.36414
4.22147
4.07927
3.94032
3.80408
3.66357
3.5141
3.36582
3.23443
3.12135
3.01974
2.92388
2.83168
2.74215
2.65087
2.55284
2.45296
2.36789
2.30073
2.24217
2.18417
2.12419
2.06116
1.99131
1.91151
1.82914
1.76608
1.72343
1.68811
1.65876
1.62898
1.58926
1.53552
1.48575
1.42879
1.43012
1.52979
1.87045
2.34868
2.84242
3.03955
3.0804
3.10766
3.12188
3.10525
3.07501
3.02712
2.96372
2.89208
2.81913
2.75668
2.71155
2.67626
2.6376
2.5943
2.5545
2.52179
2.49989
2.48311
2.46387
2.43568
2.39249
2.31868
2.22854
2.1751
2.16246
2.15656
2.14968
2.11624
5.52817
6.05571
5.82926
5.55785
5.3001
5.05763
4.82221
4.61586
4.37133
4.1595
4.08385
4.5761
6.05798
7.29826
7.6675
7.45942
7.09543
6.70635
6.35692
6.15319
5.98634
5.80565
5.59861
5.37188
5.12331
4.87279
4.66393
4.49441
4.33979
4.18939
4.04152
3.89485
3.74522
3.59016
3.4377
3.30346
3.19116
3.09279
2.9994
2.90436
2.80382
2.69647
2.58716
2.48714
2.40348
2.33516
2.27672
2.22198
2.16546
2.10273
2.03307
1.95712
1.87449
1.80309
1.75002
1.70783
1.66936
1.62807
1.59055
1.55573
1.50836
1.44487
1.4009
1.38203
1.39543
1.51432
1.81635
2.26694
2.67397
2.94324
2.97645
2.98597
2.98763
2.94824
2.8986
2.85341
2.79607
2.74267
2.70298
2.65494
2.59652
2.55471
2.52731
2.50332
2.47983
2.45064
2.4126
2.37315
2.33049
2.26889
2.19889
2.16898
2.15334
2.13636
2.11637
2.07415
3.43344
5.63752
5.90496
5.68523
5.38934
5.13805
4.90551
4.70353
4.47522
4.56261
5.35271
7.16008
8.11538
8.14976
7.87623
7.50407
7.24424
6.98522
6.69109
6.43442
6.20654
5.97599
5.74619
5.51538
5.27422
5.02601
4.80263
4.61958
4.45824
4.30496
4.15448
4.00114
3.83842
3.66666
3.50064
3.359
3.24406
3.14581
3.05463
2.96205
2.86147
2.75125
2.63703
2.53217
2.44341
2.3676
2.29999
2.23766
2.18167
2.1288
2.06892
1.99818
1.92129
1.84917
1.7864
1.73482
1.69242
1.65562
1.61787
1.57282
1.52409
1.47122
1.41899
1.37795
1.36075
1.3421
1.35339
1.47501
1.75863
2.2026
2.53116
2.79631
2.88447
2.89911
2.88389
2.83155
2.76522
2.71235
2.65348
2.58939
2.56507
2.55248
2.53051
2.50395
2.47306
2.43529
2.38934
2.33583
2.26992
2.21321
2.18163
2.16623
2.14712
2.12232
2.09727
2.05115
1.46283
4.00985
5.64371
5.75264
5.52468
5.20492
5.00102
4.86124
5.21341
6.45159
8.01865
9.03205
8.81831
8.39234
8.00766
7.71065
7.47927
7.23682
6.94907
6.6466
6.37271
6.12322
5.88434
5.65218
5.41667
5.17229
4.93707
4.734
4.55875
4.39736
4.24069
4.08143
3.91467
3.74184
3.57483
3.42845
3.30535
3.19812
3.099
3.00215
2.90165
2.79412
2.68398
2.58188
2.49338
2.41525
2.34493
2.2778
2.20853
2.13365
2.05895
1.99021
1.92862
1.87407
1.82223
1.77508
1.72973
1.69088
1.64826
1.60042
1.54947
1.48775
1.43864
1.39531
1.36232
1.3306
1.31271
1.29282
1.30495
1.40925
1.68497
2.0956
2.42151
2.66906
2.77507
2.76942
2.76164
2.73551
2.66204
2.58568
2.54301
2.50619
2.46854
2.43455
2.40236
2.36895
2.33472
2.28795
2.22771
2.18267
2.16462
2.15095
2.13243
2.1061
2.07024
2.02046
1.0211
1.78181
4.35307
5.65217
5.58152
5.29987
5.33235
6.20067
7.98051
9.06964
9.42479
9.36611
9.0424
8.65017
8.29597
8.02084
7.74304
7.45265
7.14732
6.83379
6.53974
6.27287
6.0224
5.77934
5.5373
5.29385
5.05559
4.83742
4.64488
4.47042
4.30463
4.14078
3.97531
3.80872
3.64702
3.4992
3.36904
3.25269
3.14291
3.03479
2.9285
2.82616
2.72727
2.63218
2.54831
2.4775
2.41009
2.33571
2.25369
2.16885
2.0881
2.01935
1.95311
1.89611
1.84597
1.79551
1.7357
1.69137
1.66906
1.63921
1.58589
1.50603
1.46714
1.44586
1.41708
1.38015
1.33786
1.29343
1.25821
1.22931
1.24945
1.35731
1.65404
2.04274
2.35731
2.50906
2.65188
2.66012
2.64306
2.60328
2.55355
2.49539
2.44789
2.41226
2.37996
2.33885
2.28066
2.22596
2.20324
2.1927
2.17833
2.16073
2.13525
2.09959
2.06147
2.01496
1.00023
1.05238
2.09485
4.80026
5.19561
5.76958
7.47225
9.45241
10.3159
10.0504
9.8619
9.47698
9.22136
8.91025
8.55661
8.24348
7.94001
7.62894
7.31631
7.00056
6.69194
6.4037
6.13795
5.8881
5.6439
5.40341
5.16783
4.94405
4.73816
4.54922
4.37126
4.19882
4.02976
3.86583
3.71012
3.5652
3.43174
3.3081
3.19115
3.07783
2.96697
2.85868
2.75469
2.65838
2.57039
2.49111
2.41474
2.33946
2.26643
2.19288
2.10763
2.03127
1.9973
1.95359
1.89382
1.82573
1.76802
1.72012
1.66647
1.60854
1.55207
1.5101
1.48169
1.4486
1.41188
1.37071
1.32823
1.28537
1.24663
1.22269
1.20464
1.18
1.20608
1.31918
1.60683
1.95651
2.34586
2.46041
2.48256
2.49635
2.47744
2.45262
2.43398
2.40844
2.36824
2.31739
2.25256
2.20227
2.17469
2.15418
2.13564
2.11633
2.09512
2.07864
2.05499
2.07826
1
1.00074
1.1057
2.50914
4.16523
8.74333
10.8834
11.1352
10.8976
10.4272
10.001
9.71921
9.50752
9.20986
8.83251
8.49828
8.20402
7.89816
7.58252
7.25941
6.93282
6.62101
6.33663
6.07493
5.83044
5.59122
5.35457
5.12387
4.90628
4.70522
4.51772
4.33916
4.16716
4.00183
3.84388
3.69418
3.55333
3.42099
3.29559
3.17453
3.05627
2.94171
2.83312
2.73127
2.63476
2.54319
2.46171
2.3903
2.32123
2.24764
2.16893
2.08525
1.99815
1.93379
1.88124
1.83057
1.7798
1.72356
1.66395
1.60943
1.56043
1.52533
1.48963
1.45361
1.42057
1.38266
1.33958
1.29598
1.25947
1.23184
1.1995
1.17295
1.14903
1.13664
1.16779
1.30308
1.59004
1.92958
2.21822
2.39799
2.39377
2.38536
2.37925
2.34946
2.30189
2.26458
2.23274
2.19488
2.15819
2.13811
2.12446
2.10959
2.09604
2.11069
2.17166
2.53689
1
1
1.00236
1.17172
5.04329
12.3973
12.3354
11.4585
10.991
10.6425
10.2837
10.0008
9.77067
9.42731
9.0082
8.6285
8.297
7.95801
7.61711
7.28314
6.94991
6.62459
6.3301
6.06468
5.81498
5.57354
5.33616
5.10388
4.88221
4.67547
4.48266
4.30004
4.12484
3.95633
3.79504
3.64262
3.50062
3.36939
3.2469
3.1294
3.01419
2.90127
2.79268
2.69095
2.59834
2.51617
2.44012
2.36644
2.2921
2.21564
2.13973
2.06563
1.98635
1.92926
1.89918
1.86553
1.81417
1.7419
1.6684
1.63107
1.6035
1.57033
1.53156
1.48224
1.4264
1.38531
1.36149
1.33334
1.30161
1.26959
1.22792
1.18075
1.1427
1.11853
1.10398
1.1006
1.13806
1.29635
1.56306
1.89141
2.09166
2.27865
2.33151
2.32383
2.29739
2.2455
2.20181
2.16782
2.14976
2.13989
2.14469
2.19774
2.33688
2.58628
2.89938
3.39936
1
1
1.00001
1.02518
6.66085
12.2818
11.742
11.1095
10.864
10.6798
10.4397
10.1858
9.90376
9.55317
9.14949
8.76754
8.43898
8.12639
7.78246
7.42389
7.07475
6.73752
6.43244
6.15855
5.90089
5.65019
5.40317
5.16219
4.93397
4.72347
4.52919
4.34612
4.16944
3.99633
3.82701
3.66596
3.51857
3.38579
3.26374
3.1473
3.03334
2.92082
2.80938
2.70236
2.60658
2.52364
2.44868
2.37671
2.30437
2.229
2.14779
2.06512
1.99518
1.93884
1.88568
1.83615
1.78828
1.7365
1.68535
1.63468
1.58323
1.53856
1.50069
1.46429
1.42586
1.39258
1.35677
1.31616
1.27576
1.23965
1.20848
1.17731
1.14658
1.12201
1.10187
1.08708
1.07802
1.0796
1.11697
1.25088
1.50059
1.81573
2.03749
2.16107
2.21243
2.19672
2.19189
2.19511
2.23588
2.341
2.52841
2.84846
3.22248
3.56307
3.80289
3.9341
1
1
1
1.30971
7.50616
11.4393
11.481
11.2343
11.0422
10.818
10.545
10.2669
9.93546
9.55901
9.17169
8.80483
8.46388
8.1391
7.78355
7.40629
7.07543
6.77027
6.47923
6.20399
5.93696
5.67186
5.41141
5.16587
4.94348
4.74334
4.55821
4.38016
4.20202
4.01983
3.83896
3.6731
3.52906
3.40213
3.28453
3.16979
3.05333
2.93357
2.81362
2.70196
2.60573
2.52357
2.45004
2.38009
2.3094
2.23509
2.15695
2.07986
2.00711
1.93748
1.87648
1.82727
1.78492
1.74363
1.69882
1.64647
1.59251
1.53966
1.49287
1.45944
1.4334
1.40236
1.36474
1.32319
1.27828
1.23287
1.20053
1.17581
1.14815
1.12545
1.11369
1.10076
1.07641
1.05268
1.02665
1.03119
1.07493
1.21338
1.48774
1.81611
1.99771
2.09011
2.28513
2.56956
2.85276
3.11442
3.38639
3.62169
3.78488
3.90702
3.99598
3.97411
1
1
1
1.47003
7.94684
11.012
11.1725
11.1396
11.0252
10.8889
10.6935
10.4345
10.1089
9.73448
9.34916
8.97297
8.60273
8.24025
7.88029
7.52181
7.18616
6.86642
6.55645
6.25767
5.96758
5.6845
5.41344
5.16604
4.94906
4.75668
4.57728
4.40039
4.21762
4.0267
3.83847
3.67176
3.53177
3.40969
3.2958
3.18279
3.06456
2.93928
2.81306
2.6979
2.60167
2.52093
2.44857
2.3791
2.30904
2.23777
2.1654
2.09177
2.01726
1.94466
1.87698
1.81932
1.77364
1.7353
1.70001
1.66114
1.61268
1.55511
1.49912
1.44928
1.40717
1.3759
1.35213
1.32925
1.29493
1.24125
1.18885
1.15526
1.13646
1.12524
1.11125
1.08857
1.05866
1.02719
0.993662
0.974091
0.966662
0.978882
1.05468
1.27122
1.68986
2.281
2.84805
3.36587
3.87412
4.23563
4.5099
4.62666
4.55861
4.42465
4.22711
3.94097
)
;

boundaryField
{
    inlet
    {
        type            fixedValue;
        value           uniform 1;
    }
    outlet
    {
        type            zeroGradient;
    }
    bottom
    {
        type            symmetryPlane;
    }
    top
    {
        type            symmetryPlane;
    }
    obstacle
    {
        type            zeroGradient;
    }
    defaultFaces
    {
        type            empty;
    }
}


// ************************************************************************* //
