/*--------------------------------*- C++ -*----------------------------------*\
  =========                 |
  \\      /  F ield         | OpenFOAM: The Open Source CFD Toolbox
   \\    /   O peration     | Website:  https://openfoam.org
    \\  /    A nd           | Version:  7
     \\/     M anipulation  |
\*---------------------------------------------------------------------------*/
FoamFile
{
    version     2.0;
    format      ascii;
    class       volScalarField;
    location    "3.7";
    object      p;
}
// * * * * * * * * * * * * * * * * * * * * * * * * * * * * * * * * * * * * * //

dimensions      [1 -1 -2 0 0 0 0];

internalField   nonuniform List<scalar> 
64512
(
1
1
1
1
1
1
1
1
1
1
1
1
1
1
1
1
1
1
1
1
1
1
1
1
1
1
1
1
1
1
1
1
1
1
1
1
1
1
1
1
1
1
1
1
1
1
1
1
1.01915
6.72833
10.3992
10.4664
10.5248
10.5828
10.6371
10.692
10.7493
10.8088
10.8671
10.921
10.9692
11.0134
11.057
11.1036
11.1539
11.2057
11.2556
11.3011
11.3416
11.3788
11.4163
11.4575
11.5021
11.548
11.5929
11.6339
11.6692
11.6996
11.7273
11.7551
11.7842
11.8145
11.8445
11.8727
11.8982
11.9209
11.9411
11.9593
11.9764
11.9929
12.009
12.0239
12.0365
12.0453
12.0508
12.0537
1
1
1
1
1
1
1
1
1
1
1
1
1
1
1
1
1
1
1
1
1
1
1
1
1
1
1
1
1
1
1
1
1
1
1
1
1
1
1
1
1
1
1
1
1
1
1
1
1.01027
6.69413
10.3914
10.4679
10.5241
10.5812
10.6348
10.6892
10.7463
10.8059
10.8646
10.919
10.9678
11.0125
11.0564
11.1029
11.1529
11.2043
11.2538
11.2992
11.3399
11.3774
11.4152
11.4565
11.5007
11.5461
11.5903
11.6309
11.6661
11.6965
11.7245
11.7524
11.7817
11.812
11.8419
11.87
11.8954
11.918
11.9382
11.9566
11.9738
11.9902
12.0061
12.0206
12.0329
12.0416
12.0472
12.0502
1
1
1
1
1
1
1
1
1
1
1
1
1
1
1
1
1
1
1
1
1
1
1
1
1
1
1
1
1
1
1
1
1
1
1
1
1
1
1
1
1
1
1
1
1
1
1
1
1.00083
6.60979
10.3858
10.4621
10.5175
10.5748
10.6286
10.6833
10.7407
10.8007
10.8598
10.9147
10.9643
11.0098
11.0542
11.1008
11.1507
11.2016
11.2506
11.2959
11.3365
11.3745
11.4127
11.4541
11.498
11.5428
11.5863
11.6263
11.6613
11.6918
11.72
11.7482
11.7776
11.8079
11.8378
11.8658
11.8911
11.9136
11.9338
11.9522
11.9694
11.9858
12.0013
12.0153
12.0272
12.0357
12.0414
12.0446
1
1
1
1
1
1
1
1
1
1
1
1
1
1
1
1
1
1
1
1
1
1
1
1
1
1
1
1
1
1
1
1
1
1
1
1
1
1
1
1
1
1
1
1
1
1
1
1
1.00003
6.4813
10.379
10.457
10.5113
10.569
10.6225
10.6764
10.7332
10.7928
10.852
10.9072
10.9576
11.0041
11.0492
11.0962
11.1461
11.1968
11.2454
11.2907
11.3314
11.3698
11.4084
11.4497
11.4932
11.5373
11.58
11.6194
11.6542
11.6847
11.7131
11.7415
11.771
11.8014
11.8313
11.8593
11.8846
11.9072
11.9274
11.946
11.9632
11.9793
11.9943
12.0075
12.0186
12.0268
12.0324
12.0359
1
1
1
1
1
1
1
1
1
1
1
1
1
1
1
1
1
1
1
1
1
1
1
1
1
1
1
1
1
1
1
1
1
1
1
1
1
1
1
1
1
1
1
1
1
1
1
1
1
6.30919
10.3704
10.4498
10.502
10.5595
10.6128
10.6666
10.7234
10.7832
10.8431
10.8992
10.9507
10.9983
11.044
11.091
11.1408
11.191
11.2392
11.2843
11.3248
11.3635
11.4022
11.4434
11.4864
11.5297
11.5718
11.6107
11.6451
11.6757
11.7042
11.7326
11.7622
11.7925
11.8224
11.8505
11.876
11.8987
11.9192
11.9379
11.9551
11.971
11.9853
11.9976
12.0078
12.0155
12.021
12.0246
1
1
1
1
1
1
1
1
1
1
1
1
1
1
1
1
1
1
1
1
1
1
1
1
1
1
1
1
1
1
1
1
1
1
1
1
1
1
1
1
1
1
1
1
1
1
1
1
1
6.09321
10.3562
10.4395
10.4909
10.5493
10.603
10.6568
10.7137
10.7737
10.8338
10.8901
10.9418
10.9897
11.0356
11.0828
11.1327
11.183
11.231
11.2763
11.3168
11.3556
11.3943
11.4352
11.4775
11.5201
11.5615
11.5999
11.6341
11.6645
11.693
11.7214
11.7508
11.781
11.811
11.8392
11.8649
11.888
11.9087
11.9277
11.9449
11.9604
11.974
11.9854
11.9948
12.002
12.0075
12.0112
1
1
1
1
1
1
1
1
1
1
1
1
1
1
1
1
1
1
1
1
1
1
1
1
1
1
1
1
1
1
1
1
1
1
1
1
1
1
1
1
1
1
1
1
1
1
1
1
1
5.83303
10.3331
10.4268
10.4794
10.5388
10.5928
10.6466
10.7032
10.7631
10.8232
10.8796
10.9316
10.9801
11.0264
11.0736
11.1235
11.1738
11.2215
11.2668
11.3072
11.3459
11.3845
11.4249
11.4666
11.5085
11.5492
11.5872
11.6212
11.6515
11.6799
11.7081
11.7371
11.7671
11.797
11.8255
11.8516
11.8751
11.8964
11.9155
11.9327
11.9476
11.9603
11.9707
11.9792
11.986
11.9913
11.9949
1
1
1
1
1
1
1
1
1
1
1
1
1
1
1
1
1
1
1
1
1
1
1
1
1
1
1
1
1
1
1
1
1
1
1
1
1
1
1
1
1
1
1
1
1
1
1
1
1
5.53033
10.295
10.4122
10.4679
10.5287
10.5829
10.6365
10.6926
10.7522
10.8121
10.8685
10.9205
10.9693
11.0158
11.0628
11.1125
11.1628
11.2103
11.2556
11.296
11.3347
11.3731
11.4129
11.4538
11.4947
11.5347
11.5722
11.606
11.6363
11.6645
11.6924
11.7211
11.7507
11.7805
11.8092
11.8359
11.8601
11.8819
11.9013
11.9183
11.9325
11.9442
11.9537
11.9614
11.9677
11.9726
11.9759
1
1
1
1
1
1
1
1
1
1
1
1
1
1
1
1
1
1
1
1
1
1
1
1
1
1
1
1
1
1
1
1
1
1
1
1
1
1
1
1
1
1
1
1
1
1
1
1
1
5.18706
10.236
10.3967
10.4565
10.5193
10.5738
10.627
10.6824
10.7412
10.8006
10.8567
10.9085
10.9574
11.004
11.0508
11.1002
11.1503
11.1976
11.2431
11.2836
11.3222
11.3605
11.3995
11.4394
11.4791
11.5182
11.5551
11.5885
11.6187
11.6468
11.6744
11.7026
11.7316
11.7611
11.79
11.8172
11.8422
11.8646
11.8843
11.901
11.9145
11.9255
11.9342
11.9415
11.9474
11.9518
11.9547
1
1
1
1
1
1
1
1
1
1
1
1
1
1
1
1
1
1
1
1
1
1
1
1
1
1
1
1
1
1
1
1
1
1
1
1
1
1
1
1
1
1
1
1
1
1
1
1
1
4.80554
10.1524
10.3811
10.4443
10.5098
10.565
10.618
10.6724
10.7302
10.7888
10.8445
10.8958
10.9445
10.991
11.0373
11.0861
11.136
11.183
11.2286
11.2695
11.3081
11.3464
11.3847
11.4237
11.4621
11.5001
11.5363
11.5695
11.5996
11.6277
11.655
11.6824
11.7107
11.7397
11.7686
11.7962
11.8217
11.8446
11.8643
11.8806
11.8935
11.9037
11.912
11.9189
11.9244
11.9283
11.9308
1
1
1
1
1
1
1
1
1
1
1
1
1
1
1
1
1
1
1
1
1
1
1
1
1
1
1
1
1
1
1
1
1
1
1
1
1
1
1
1
1
1
1
1
1
1
1
1
1
4.38792
10.0436
10.3663
10.431
10.4989
10.5551
10.6083
10.6622
10.719
10.7769
10.8319
10.8825
10.9307
10.977
11.0226
11.0704
11.1199
11.1666
11.2121
11.2532
11.2916
11.3297
11.3673
11.4054
11.4425
11.4793
11.5148
11.5477
11.5779
11.6061
11.6331
11.6601
11.6877
11.7162
11.745
11.7728
11.7988
11.8219
11.8414
11.8571
11.8693
11.8791
11.8871
11.8939
11.8992
11.9025
11.9046
1
1
1
1
1
1
1
1
1
1
1
1
1
1
1
1
1
1
1
1
1
1
1
1
1
1
1
1
1
1
1
1
1
1
1
1
1
1
1
1
1
1
1
1
1
1
1
1
1
3.93786
9.90238
10.3529
10.4193
10.4886
10.545
10.5982
10.6518
10.7081
10.7654
10.8199
10.8697
10.9169
10.9628
11.0078
11.0548
11.1037
11.1502
11.1953
11.2365
11.2744
11.3119
11.3484
11.3852
11.4207
11.4561
11.4906
11.5231
11.5533
11.5817
11.6087
11.6353
11.6623
11.6904
11.719
11.747
11.7731
11.7961
11.8152
11.8303
11.8419
11.8513
11.8591
11.8657
11.8707
11.8735
11.8754
1
1
1
1
1
1
1
1
1
1
1
1
1
1
1
1
1
1
1
1
1
1
1
1
1
1
1
1
1
1
1
1
1
1
1
1
1
1
1
1
1
1
1
1
1
1
1
1
1
3.46878
9.71148
10.3431
10.41
10.4783
10.5327
10.5858
10.6389
10.6949
10.7517
10.8056
10.8547
10.9009
10.9465
10.991
11.037
11.0854
11.1319
11.1766
11.218
11.2553
11.2924
11.3279
11.3636
11.3976
11.4317
11.4651
11.4969
11.5268
11.5552
11.5821
11.6083
11.6348
11.6624
11.6907
11.7186
11.7444
11.7669
11.7855
11.8
11.8112
11.8204
11.8282
11.8346
11.8392
11.8417
11.8435
1
1
1
1
1
1
1
1
1
1
1
1
1
1
1
1
1
1
1
1
1
1
1
1
1
1
1
1
1
1
1
1
1
1
1
1
1
1
1
1
1
1
1
1
1
1
1
1
1
2.99332
9.46274
10.335
10.4011
10.4685
10.5212
10.5736
10.626
10.6804
10.7356
10.7884
10.8367
10.8818
10.9268
10.9712
11.0165
11.0647
11.1117
11.1561
11.1978
11.2344
11.2708
11.3052
11.3398
11.3724
11.4052
11.4376
11.4688
11.4984
11.5267
11.5535
11.5794
11.6052
11.6321
11.6598
11.6871
11.7122
11.7341
11.752
11.766
11.7771
11.7862
11.7939
11.7999
11.8041
11.8063
11.808
1
1
1
1
1
1
1
1
1
1
1
1
1
1
1
1
1
1
1
1
1
1
1
1
1
1
1
1
1
1
1
1
1
1
1
1
1
1
1
1
1
1
1
1
1
1
1
1
1
2.52829
9.1352
10.3404
10.3979
10.4631
10.5127
10.5639
10.6147
10.6674
10.7211
10.7726
10.8199
10.8639
10.908
10.9521
10.9964
11.0435
11.0901
11.1333
11.1749
11.2105
11.246
11.2794
11.3133
11.3451
11.377
11.4085
11.4391
11.4683
11.4963
11.5228
11.5482
11.5733
11.5993
11.626
11.6523
11.6765
11.6974
11.7146
11.7284
11.7394
11.7485
11.756
11.7616
11.7654
11.7673
11.769
1
1
1
1
1
1
1
1
1
1
1
1
1
1
1
1
1
1
1
1
1
1
1
1
1
1
1
1
1
1
1
1
1
1
1
1
1
1
1
1
1
1
1
1
1
1
1
1
1
2.08189
8.71295
10.3557
10.3947
10.4574
10.5009
10.5506
10.6004
10.6518
10.7045
10.7556
10.8025
10.8459
10.8887
10.9324
10.9756
11.0213
11.0671
11.109
11.1502
11.1851
11.2198
11.2523
11.2853
11.3162
11.3468
11.3771
11.4068
11.4354
11.4632
11.4897
11.5148
11.5392
11.564
11.5895
11.6143
11.6371
11.6569
11.6734
11.6869
11.6979
11.7069
11.7141
11.719
11.7223
11.7239
11.7256
1
1
1
1
1
1
1
1
1
1
1
1
1
1
1
1
1
1
1
1
1
1
1
1
1
1
1
1
1
1
1
1
1
1
1
1
1
1
1
1
1
1
1
1
1
1
1
1
1
1.67235
8.20999
10.4011
10.3884
10.4476
10.488
10.5359
10.5839
10.6342
10.6858
10.7363
10.7833
10.8265
10.8679
10.9105
10.9529
10.9974
11.0423
11.0833
11.124
11.1587
11.1924
11.2237
11.2556
11.2853
11.3145
11.3435
11.3723
11.4004
11.428
11.4545
11.4792
11.5027
11.5259
11.5494
11.5723
11.5934
11.6119
11.6277
11.6411
11.6521
11.661
11.6678
11.6722
11.6752
11.6765
11.6782
1
1
1
1
1
1
1
1
1
1
1
1
1
1
1
1
1
1
1
1
1
1
1
1
1
1
1
1
1
1
1
1
1
1
1
1
1
1
1
1
1
1
1
1
1
1
1
1
1
1.31772
7.59962
10.4163
10.3768
10.4243
10.4626
10.5101
10.5579
10.609
10.662
10.7138
10.7614
10.8045
10.8448
10.8861
10.9278
10.9713
11.0155
11.056
11.0959
11.1309
11.1637
11.194
11.2244
11.2531
11.2809
11.3084
11.3361
11.3634
11.3905
11.4167
11.4409
11.4631
11.4843
11.5055
11.5262
11.5456
11.563
11.5782
11.5912
11.6019
11.6105
11.6167
11.6205
11.6228
11.6237
11.6251
1
1
1
1
1
1
1
1
1
1
1
1
1
1
1
1
1
1
1
1
1
1
1
1
1
1
1
1
1
1
1
1
1
1
1
1
1
1
1
1
1
1
1
1
1
1
1
1
1
1.06411
6.98868
10.3488
10.337
10.3915
10.4374
10.4879
10.5379
10.5884
10.6388
10.6881
10.7353
10.7789
10.8188
10.8587
10.8997
10.9421
10.9856
11.026
11.0646
11.1003
11.1327
11.1626
11.1917
11.2194
11.2459
11.2717
11.298
11.3242
11.3505
11.3761
11.3995
11.4202
11.4392
11.4576
11.4758
11.4934
11.5095
11.5238
11.5361
11.5463
11.5543
11.56
11.5633
11.5653
11.5658
11.567
1
1
1
1
1
1
1
1
1
1
1
1
1
1
1
1
1
1
1
1
1
1
1
1
1
1
1
1
1
1
1
1
1
1
1
1
1
1
1
1
1
1
1
1
1
1
1
1
1
1.00153
6.21359
10.1986
10.2915
10.3494
10.4018
10.4514
10.5011
10.5518
10.6037
10.6545
10.7026
10.7466
10.7875
10.8274
10.8679
10.9093
10.9523
10.993
11.0306
11.067
11.0993
11.1294
11.1572
11.184
11.2092
11.2335
11.2579
11.2827
11.3078
11.3323
11.3547
11.3737
11.3902
11.4057
11.4213
11.4368
11.4517
11.4649
11.4762
11.4854
11.4925
11.4973
11.4999
11.5013
11.5011
11.5018
1
1
1
1
1
1
1
1
1
1
1
1
1
1
1
1
1
1
1
1
1
1
1
1
1
1
1
1
1
1
1
1
1
1
1
1
1
1
1
1
1
1
1
1
1
1
1
1
1
1
5.39862
10.058
10.2326
10.3089
10.379
10.4352
10.4852
10.5323
10.5796
10.6268
10.6733
10.7174
10.7568
10.7949
10.834
10.874
10.9157
10.9565
10.9936
11.0304
11.0629
11.0935
11.1203
11.1462
11.1702
11.1931
11.2156
11.2386
11.2621
11.2853
11.3062
11.3233
11.3371
11.3496
11.3624
11.3756
11.3886
11.4002
11.4099
11.4176
11.4234
11.4273
11.4293
11.4304
11.4298
11.4302
1
1
1
1
1
1
1
1
1
1
1
1
1
1
1
1
1
1
1
1
1
1
1
1
1
1
1
1
1
1
1
1
1
1
1
1
1
1
1
1
1
1
1
1
1
1
1
1
1
1
4.51037
9.84506
10.2041
10.2796
10.3464
10.404
10.456
10.5058
10.5544
10.6012
10.6461
10.6883
10.7266
10.7621
10.7982
10.8357
10.8756
10.9168
10.954
10.9908
11.0234
11.0543
11.0804
11.1054
11.1285
11.15
11.1706
11.1917
11.2132
11.2344
11.2535
11.2686
11.2799
11.2894
11.2991
11.3095
11.3202
11.3298
11.3376
11.3435
11.3476
11.3498
11.3506
11.3505
11.3489
11.3486
1
1
1
1
1
1
1
1
1
1
1
1
1
1
1
1
1
1
1
1
1
1
1
1
1
1
1
1
1
1
1
1
1
1
1
1
1
1
1
1
1
1
1
1
1
1
1
1
1
1
3.61239
9.54088
10.187
10.2675
10.3378
10.3938
10.4401
10.4837
10.5274
10.5711
10.615
10.6576
10.6968
10.7316
10.7653
10.7987
10.8357
10.8741
10.9118
10.9482
10.9805
11.0112
11.0372
11.0613
11.0834
11.1038
11.1226
11.1413
11.1605
11.1794
11.1964
11.2093
11.2183
11.2249
11.2312
11.2382
11.2455
11.2521
11.2572
11.2604
11.262
11.2622
11.2618
11.2608
11.2587
11.2583
1
1
1
1
1
1
1
1
1
1
1
1
1
1
1
1
1
1
1
1
1
1
1
1
1
1
1
1
1
1
1
1
1
1
1
1
1
1
1
1
1
1
1
1
1
1
1
1
1
1
2.77658
9.08129
10.2066
10.2637
10.3184
10.3638
10.4131
10.4621
10.5073
10.5487
10.5881
10.6261
10.6629
10.6975
10.7298
10.762
10.7948
10.8326
10.8681
10.9025
10.9348
10.9646
10.9903
11.0134
11.0346
11.0536
11.0708
11.0871
11.1037
11.12
11.1345
11.1452
11.1521
11.1559
11.1584
11.1611
11.1641
11.1673
11.1695
11.1695
11.168
11.1652
11.1619
11.1584
11.1545
11.153
1
1
1
1
1
1
1
1
1
1
1
1
1
1
1
1
1
1
1
1
1
1
1
1
1
1
1
1
1
1
1
1
1
1
1
1
1
1
1
1
1
1
1
1
1
1
1
1
1
1
1.97952
8.44654
10.2923
10.2645
10.3153
10.3571
10.3986
10.4376
10.478
10.5197
10.5605
10.5989
10.6337
10.6654
10.6946
10.7238
10.7542
10.7861
10.8244
10.8558
10.8863
10.9142
10.9396
10.9616
10.9815
10.9992
11.0147
11.0287
11.0426
11.056
11.0677
11.0765
11.0813
11.0818
11.0802
11.0778
11.0756
11.0742
11.0716
11.0668
11.0604
11.0533
11.0468
11.0413
11.0364
11.0348
1
1
1
1
1
1
1
1
1
1
1
1
1
1
1
1
1
1
1
1
1
1
1
1
1
1
1
1
1
1
1
1
1
1
1
1
1
1
1
1
1
1
1
1
1
1
1
1
1
1
1.30444
7.67838
10.3799
10.2671
10.2776
10.3121
10.358
10.405
10.4503
10.4919
10.5308
10.5675
10.6014
10.6326
10.6612
10.6878
10.7149
10.7434
10.7742
10.8078
10.8361
10.8613
10.8849
10.9058
10.9241
10.9402
10.9539
10.9657
10.9767
10.9871
10.9962
11.0029
11.0049
11.0021
10.9959
10.9877
10.9794
10.972
10.9637
10.9538
10.9421
10.9294
10.9169
10.9054
10.8962
10.8914
1
1
1
1
1
1
1
1
1
1
1
1
1
1
1
1
1
1
1
1
1
1
1
1
1
1
1
1
1
1
1
1
1
1
1
1
1
1
1
1
1
1
1
1
1
1
1
1
1
1
1.01293
6.78444
10.229
10.1628
10.2325
10.2848
10.3291
10.3706
10.4163
10.4603
10.4995
10.5352
10.5678
10.5973
10.6248
10.6507
10.6761
10.7018
10.7292
10.7586
10.7847
10.8062
10.8276
10.8469
10.863
10.8768
10.8884
10.8981
10.9061
10.9136
10.9201
10.9239
10.9228
10.9164
10.9051
10.8904
10.8748
10.8599
10.8441
10.826
10.8049
10.7824
10.7615
10.7442
10.7322
10.7277
1
1
1
1
1
1
1
1
1
1
1
1
1
1
1
1
1
1
1
1
1
1
1
1
1
1
1
1
1
1
1
1
1
1
1
1
1
1
1
1
1
1
1
1
1
1
1
1
1
1
1.00003
5.60937
9.95005
10.1049
10.1907
10.245
10.2964
10.3418
10.3811
10.4198
10.4608
10.4977
10.5304
10.5597
10.5869
10.612
10.6358
10.6592
10.6835
10.7101
10.7341
10.7528
10.7688
10.7852
10.7992
10.81
10.8187
10.8259
10.8308
10.8353
10.8387
10.8391
10.8346
10.824
10.8073
10.7854
10.7613
10.7369
10.7112
10.6831
10.652
10.6194
10.5871
10.5559
10.5302
10.514
1
1
1
1
1
1
1
1
1
1
1
1
1
1
1
1
1
1
1
1
1
1
1
1
1
1
1
1
1
1
1
1
1
1
1
1
1
1
1
1
1
1
1
1
1
1
1
1
1
1
1
4.5038
9.70773
10.0323
10.1372
10.2163
10.2658
10.3058
10.3442
10.3844
10.4206
10.4548
10.4884
10.5188
10.5461
10.5708
10.5938
10.6156
10.6373
10.6604
10.682
10.6988
10.7116
10.7229
10.7335
10.7413
10.7464
10.7503
10.7515
10.7527
10.7523
10.7488
10.7402
10.725
10.7023
10.6724
10.6384
10.6026
10.5648
10.5233
10.4759
10.4222
10.3661
10.3146
10.2752
10.2603
1
1
1
1
1
1
1
1
1
1
1
1
1
1
1
1
1
1
1
1
1
1
1
1
1
1
1
1
1
1
1
1
1
1
1
1
1
1
1
1
1
1
1
1
1
1
1
1
1
1
1
3.4126
9.22216
10.0432
10.1369
10.2001
10.2458
10.2819
10.3129
10.3451
10.3774
10.4112
10.443
10.4735
10.5015
10.5264
10.5489
10.5692
10.5889
10.6092
10.628
10.6427
10.6532
10.6611
10.6671
10.671
10.6724
10.672
10.6689
10.666
10.661
10.6528
10.6394
10.6188
10.5895
10.5512
10.5062
10.4567
10.403
10.3431
10.2746
10.1986
10.1183
10.038
9.95414
9.88396
1
1
1
1
1
1
1
1
1
1
1
1
1
1
1
1
1
1
1
1
1
1
1
1
1
1
1
1
1
1
1
1
1
1
1
1
1
1
1
1
1
1
1
1
1
1
1
1
1
1
1
2.31347
8.5191
10.1167
10.1302
10.1711
10.2088
10.2471
10.2811
10.3121
10.3418
10.3695
10.3977
10.4271
10.4543
10.4788
10.5009
10.5203
10.5382
10.556
10.5722
10.5848
10.5935
10.5981
10.6004
10.6001
10.5974
10.5916
10.5842
10.5762
10.5658
10.5519
10.5327
10.5057
10.4689
10.4216
10.3644
10.2992
10.2265
10.1447
10.0497
9.93694
9.79853
9.63525
9.47526
9.36079
1
1
1
1
1
1
1
1
1
1
1
1
1
1
1
1
1
1
1
1
1
1
1
1
1
1
1
1
1
1
1
1
1
1
1
1
1
1
1
1
1
1
1
1
1
1
1
1
1
1
1
1.36564
7.71935
10.269
10.1329
10.1341
10.1672
10.2072
10.2427
10.2746
10.305
10.3326
10.3578
10.382
10.4068
10.4296
10.45
10.468
10.4841
10.4998
10.5136
10.5245
10.5314
10.5338
10.5324
10.5278
10.5201
10.5091
10.497
10.4835
10.467
10.4467
10.4206
10.3862
10.3413
10.284
10.2137
10.1313
10.0365
9.92677
9.79435
9.63009
9.42754
9.18415
8.92281
8.75384
1
1
1
1
1
1
1
1
1
1
1
1
1
1
1
1
1
1
1
1
1
1
1
1
1
1
1
1
1
1
1
1
1
1
1
1
1
1
1
1
1
1
1
1
1
1
1
1
1
1
1
1.01644
6.62038
10.0533
10.0196
10.0751
10.1172
10.1636
10.2045
10.2374
10.2667
10.2932
10.3177
10.3408
10.3626
10.3826
10.4003
10.4158
10.4293
10.4422
10.4534
10.4622
10.4673
10.468
10.4634
10.4546
10.4417
10.4259
10.4083
10.3888
10.3659
10.3383
10.3042
10.2614
10.2072
10.1392
10.055
9.95403
9.83448
9.69278
9.51938
9.30097
9.00646
8.56617
7.73388
5.78466
1
1
1
1
1
1
1
1
1
1
1
1
1
1
1
1
1
1
1
1
1
1
1
1
1
1
1
1
1
1
1
1
1
1
1
1
1
1
1
1
1
1
1
1
1
1
1
1
1
1
1
0.999978
5.1709
9.68986
9.9477
10.0366
10.0878
10.1253
10.1638
10.1965
10.2246
10.2503
10.274
10.296
10.3166
10.3352
10.3506
10.3629
10.3734
10.3831
10.391
10.3974
10.4006
10.3994
10.3926
10.3799
10.3623
10.3414
10.3178
10.2918
10.2621
10.2273
10.1848
10.1327
10.0683
9.98864
9.89001
9.77001
9.62486
9.44891
9.22954
8.94033
8.5347
7.89315
6.9295
4.71842
1
1
1
1
1
1
1
1
1
1
1
1
1
1
1
1
1
1
1
1
1
1
1
1
1
1
1
1
1
1
1
1
1
1
1
1
1
1
1
1
1
1
1
1
1
1
1
1
1
1
1
0.999993
3.84789
9.3471
9.93509
10.0095
10.0654
10.1003
10.1228
10.1503
10.1779
10.2037
10.2274
10.2491
10.269
10.2867
10.3006
10.3104
10.3179
10.3239
10.3282
10.3312
10.332
10.3285
10.3195
10.3039
10.2824
10.256
10.2264
10.1936
10.1568
10.1145
10.0635
10.0015
9.92615
9.83408
9.72073
9.58185
9.41149
9.20228
8.93783
8.59293
8.09966
7.43901
6.16607
4.34839
1
1
1
1
1
1
1
1
1
1
1
1
1
1
1
1
1
1
1
1
1
1
1
1
1
1
1
1
1
1
1
1
1
1
1
1
1
1
1
1
1
1
1
1
1
1
1
1
1
1
1
0.999999
2.5257
8.61115
9.98722
10.0022
10.0326
10.0611
10.0877
10.1137
10.1381
10.1613
10.1827
10.2024
10.2205
10.2365
10.2492
10.2572
10.262
10.2643
10.2649
10.264
10.262
10.2558
10.2442
10.2263
10.2012
10.1702
10.1343
10.0946
10.0502
9.99992
9.94067
9.86927
9.78271
9.67803
9.55005
9.39353
9.19993
8.96203
8.65872
8.27239
7.73044
6.99047
5.74923
4.25721
1
1
1
1
1
1
1
1
1
1
1
1
1
1
1
1
1
1
1
1
1
1
1
1
1
1
1
1
1
1
1
1
1
1
1
1
1
1
1
1
1
1
1
1
1
1
1
1
1
1
1
1
1.4199
7.78078
10.1414
10.0059
9.98633
10.0139
10.0468
10.074
10.0973
10.1182
10.1371
10.1545
10.1706
10.1848
10.1964
10.2033
10.2059
10.2053
10.2015
10.197
10.1917
10.182
10.1673
10.1467
10.1185
10.0834
10.0418
9.99517
9.94318
9.88479
9.81718
9.73698
9.63964
9.52266
9.3805
9.20814
8.99503
8.73363
8.4027
7.98065
7.42327
6.65316
5.55241
4.37146
1
1
1
1
1
1
1
1
1
1
1
1
1
1
1
1
1
1
1
1
1
1
1
1
1
1
1
1
1
1
1
1
1
1
1
1
1
1
1
1
1
1
1
1
1
1
1
1
1
1
1
1
1.02068
6.49644
9.87016
9.86886
9.91555
9.96024
10.0001
10.0301
10.0544
10.0748
10.0921
10.1071
10.1207
10.1328
10.1423
10.148
10.1491
10.1455
10.1376
10.1292
10.1202
10.1072
10.0895
10.0659
10.0348
9.99608
9.94954
9.89645
9.83683
9.77024
9.69393
9.60508
9.49828
9.37039
9.2152
9.02893
8.8007
8.52152
8.1737
7.73205
7.16741
6.42912
5.49222
4.51373
1
1
1
1
1
1
1
1
1
1
1
1
1
1
1
1
1
1
1
1
1
1
1
1
1
1
1
1
1
1
1
1
1
1
1
1
1
1
1
1
1
1
1
1
1
1
1
1
1
1
1
1
0.999964
4.84006
9.4614
9.80229
9.88837
9.92904
9.9572
9.98555
10.0097
10.0297
10.0459
10.0591
10.0706
10.0803
10.0877
10.0919
10.0914
10.0854
10.0746
10.062
10.0488
10.0327
10.0118
9.98471
9.95032
9.90767
9.85675
9.79791
9.73114
9.65675
9.57222
9.47483
9.35922
9.22238
9.05613
8.85823
8.61891
8.32845
7.97246
7.52821
6.96981
6.29545
5.48936
4.64488
1
1
1
1
1
1
1
1
1
1
1
1
1
1
1
1
1
1
1
1
1
1
1
1
1
1
1
1
1
1
1
1
1
1
1
1
1
1
1
1
1
1
1
1
1
1
1
1
1
1
1
1
0.999989
3.28645
8.99366
9.81198
9.86308
9.89988
9.92429
9.94518
9.96513
9.98304
9.99782
10.0094
10.0188
10.026
10.0314
10.034
10.0321
10.0247
10.0115
9.99486
9.97701
9.95735
9.93329
9.90316
9.8657
9.81942
9.76444
9.70061
9.62753
9.54574
9.45337
9.34792
9.22417
9.07912
8.90509
8.69844
8.45136
8.15514
7.79922
7.36109
6.83043
6.21186
5.50597
4.7856
1
1
1
1
1
1
1
1
1
1
1
1
1
1
1
1
1
1
1
1
1
1
1
1
1
1
1
1
1
1
1
1
1
1
1
1
1
1
1
1
1
1
1
1
1
1
1
1
1
1
1
1
0.999998
1.89624
8.20456
9.89205
9.83212
9.85456
9.88566
9.90717
9.92552
9.94105
9.95349
9.96277
9.9697
9.97375
9.97642
9.97694
9.97294
9.96406
9.94851
9.92861
9.90614
9.88217
9.85476
9.8217
9.78118
9.73175
9.67256
9.60398
9.52537
9.43698
9.33743
9.22474
9.09432
8.94187
8.76211
8.55025
8.29888
8.00097
7.65173
7.22358
6.73083
6.16872
5.54028
4.92147
1
1
1
1
1
1
1
1
1
1
1
1
1
1
1
1
1
1
1
1
1
1
1
1
1
1
1
1
1
1
1
1
1
1
1
1
1
1
1
1
1
1
1
1
1
1
1
1
1
1
1
1
1
1.08877
6.87165
9.90638
9.82499
9.81406
9.8411
9.86264
9.88079
9.89534
9.90645
9.91438
9.9187
9.92011
9.92001
9.9183
9.91257
9.90239
9.88535
9.86299
9.83647
9.80786
9.77639
9.74014
9.69658
9.6445
9.58199
9.50917
9.42584
9.33178
9.22578
9.10647
8.97027
8.81235
8.62846
8.41358
8.16164
7.86532
7.52487
7.11244
6.66153
6.15127
5.58377
5.04208
1
1
1
1
1
1
1
1
1
1
1
1
1
1
1
1
1
1
1
1
1
1
1
1
1
1
1
1
1
1
1
1
1
1
1
1
1
1
1
1
1
1
1
1
1
1
1
1
1
1
1
1
1
1.00054
5.14909
9.43054
9.6787
9.76136
9.79105
9.81209
9.83284
9.84823
9.85912
9.86616
9.86812
9.86726
9.86438
9.86008
9.85247
9.84043
9.82215
9.7976
9.76754
9.73444
9.69859
9.65876
9.61225
9.55741
9.49237
9.41619
9.32845
9.22952
9.11809
8.99312
8.852
8.69034
8.50429
8.28852
8.03828
7.74716
7.41654
7.02539
6.61294
6.14056
5.62908
5.14351
1
1
1
1
1
1
1
1
1
1
1
1
1
1
1
1
1
1
1
1
1
1
1
1
1
1
1
1
1
1
1
1
1
1
1
1
1
1
1
1
1
1
1
1
1
1
1
1
1
1
1
1
1
0.999993
3.37005
8.96686
9.7181
9.74025
9.75349
9.77358
9.7909
9.80433
9.81387
9.81893
9.81872
9.81542
9.80962
9.80229
9.79252
9.77853
9.75925
9.73311
9.70031
9.6632
9.62287
9.57886
9.52901
9.4713
9.40363
9.32539
9.23429
9.13128
9.01539
8.88567
8.74024
8.5758
8.38891
8.17436
7.92788
7.6453
7.324
6.95853
6.57634
6.13087
5.67753
5.23086
1
1
1
1
1
1
1
1
1
1
1
1
1
1
1
1
1
1
1
1
1
1
1
1
1
1
1
1
1
1
1
1
1
1
1
1
1
1
1
1
1
1
1
1
1
1
1
1
1
1
1
1
1
0.999998
1.82602
8.15995
9.76402
9.68516
9.69819
9.73081
9.74978
9.76114
9.76813
9.77079
9.76877
9.76324
9.75482
9.74448
9.73227
9.71634
9.69583
9.6684
9.63348
9.59286
9.54823
9.4999
9.44645
9.38605
9.31604
9.23546
9.14257
9.03671
8.91717
8.78387
8.63513
8.46875
8.28187
8.06991
7.82898
7.5567
7.2455
6.90723
6.54582
6.12933
5.72769
5.30513
1
1
1
1
1
1
1
1
1
1
1
1
1
1
1
1
1
1
1
1
1
1
1
1
1
1
1
1
1
1
1
1
1
1
1
1
1
1
1
1
1
1
1
1
1
1
1
1
1
1
1
1
1
1
1.06997
6.68586
9.70956
9.65008
9.65912
9.68552
9.70421
9.71572
9.72156
9.72299
9.71976
9.71241
9.70176
9.68848
9.67343
9.65527
9.6331
9.6046
9.56828
9.52491
9.47634
9.42368
9.36637
9.30295
9.23073
9.14788
9.05314
8.94601
8.82415
8.68825
8.5371
8.36946
8.18307
7.97419
7.73987
7.47777
7.1806
6.86502
6.51946
6.13805
5.77232
5.36924
1
1
1
1
1
1
1
1
1
1
1
1
1
1
1
1
1
1
1
1
1
1
1
1
1
1
1
1
1
1
1
1
1
1
1
1
1
1
1
1
1
1
1
1
1
1
1
1
1
1
1
1
1
1
1.00028
4.74058
9.20551
9.52893
9.611
9.65114
9.66359
9.66942
9.67307
9.67323
9.66898
9.66028
9.6479
9.63215
9.61438
9.5937
9.56962
9.54006
9.50289
9.4577
9.40583
9.34911
9.28792
9.22136
9.14698
9.06248
8.96617
8.85751
8.73491
8.59825
8.44577
8.27778
8.09245
7.88659
7.6598
7.4061
7.12535
6.82973
6.49922
6.14996
5.8065
5.42821
1
1
1
1
1
1
1
1
1
1
1
1
1
1
1
1
1
1
1
1
1
1
1
1
1
1
1
1
1
1
1
1
1
1
1
1
1
1
1
1
1
1
1
1
1
1
1
1
1
1
1
1
1
1
0.999997
2.74857
8.63934
9.63405
9.61401
9.61414
9.62337
9.62886
9.62997
9.62764
9.62138
9.6108
9.59639
9.57814
9.55747
9.53396
9.50743
9.47636
9.43834
9.39212
9.33793
9.27771
9.21269
9.14272
9.06589
8.97985
8.88248
8.77267
8.64956
8.51308
8.36098
8.19343
8.00983
7.80728
7.58785
7.3399
7.07799
6.79933
6.48189
6.16206
5.8359
5.48665
1
1
1
1
1
1
1
1
1
1
1
1
1
1
1
1
1
1
1
1
1
1
1
1
1
1
1
1
1
1
1
1
1
1
1
1
1
1
1
1
1
1
1
1
1
1
1
1
1
1
1
1
1
1
0.999999
1.27691
7.5049
9.73142
9.59261
9.56195
9.57056
9.57846
9.57974
9.57736
9.57058
9.55925
9.54357
9.5235
9.50043
9.47425
9.44515
9.41224
9.37319
9.32641
9.27097
9.20831
9.13992
9.06657
8.9871
8.89952
8.80147
8.69126
8.56818
8.43189
8.2811
8.11528
7.93449
7.73509
7.5215
7.28097
7.03757
6.76807
6.46547
6.17528
5.86307
5.5428
1
1
1
1
1
1
1
1
1
1
1
1
1
1
1
1
1
1
1
1
1
1
1
1
1
1
1
1
1
1
1
1
1
1
1
1
1
1
1
1
1
1
1
1
1
1
1
1
1
1
1
1
1
1
1
1.0073
5.72409
9.28816
9.43298
9.50526
9.5291
9.53006
9.52984
9.52701
9.51986
9.50808
9.49144
9.46996
9.44486
9.41618
9.38447
9.34942
9.30897
9.26161
9.20565
9.14161
9.07064
8.99407
8.91169
8.82221
8.7234
8.61332
8.49086
8.35547
8.20627
8.04298
7.86544
7.66924
7.4618
7.23141
6.99941
6.73374
6.45556
6.18851
5.88854
5.59236
1
1
1
1
1
1
1
1
1
1
1
1
1
1
1
1
1
1
1
1
1
1
1
1
1
1
1
1
1
1
1
1
1
1
1
1
1
1
1
1
1
1
1
1
1
1
1
1
1
1
1
1
1
1
1
0.999936
3.53453
8.83902
9.47114
9.49171
9.49054
9.48983
9.48812
9.48287
9.47362
9.45997
9.44145
9.41805
9.39073
9.3595
9.32508
9.2876
9.24538
9.19719
9.14094
9.07634
9.0038
8.92475
8.83962
8.74805
8.64825
8.53848
8.4171
8.28325
8.13616
7.97561
7.8009
7.61014
7.40783
7.1878
6.96218
6.70436
6.45442
6.19445
5.90663
5.63479
1
1
1
1
1
1
1
1
1
1
1
1
1
1
1
1
1
1
1
1
1
1
1
1
1
1
1
1
1
1
1
1
1
1
1
1
1
1
1
1
1
1
1
1
1
1
1
1
1
1
1
1
1
1
1
0.999984
1.69257
8.00403
9.58991
9.46726
9.43652
9.43662
9.4357
9.43146
9.4229
9.40924
9.39015
9.36583
9.33708
9.30389
9.26714
9.22728
9.18315
9.13388
9.07735
9.01273
8.93956
8.85894
8.77154
8.67783
8.57664
8.46694
8.3468
8.21499
8.07075
7.91272
7.7421
7.5567
7.35759
7.1498
6.93076
6.68608
6.4512
6.19282
5.93308
5.67566
1
1
1
1
1
1
1
1
1
1
1
1
1
1
1
1
1
1
1
1
1
1
1
1
1
1
1
1
1
1
1
1
1
1
1
1
1
1
1
1
1
1
1
1
1
1
1
1
1
1
1
1
1
1
1
0.999997
1.04508
6.31747
9.29202
9.3466
9.37531
9.38383
9.38361
9.3802
9.37231
9.35872
9.33935
9.31442
9.28454
9.24974
9.21099
9.16884
9.12266
9.07201
9.01499
8.95047
8.87727
8.79595
8.70698
8.61143
8.50874
8.39877
8.27963
8.15002
8.00919
7.85372
7.68853
7.50635
7.31216
7.11638
6.90178
6.67078
6.44404
6.19834
5.95879
5.70586
1
1
1
1
1
1
1
1
1
1
1
1
1
1
1
1
1
1
1
1
1
1
1
1
1
1
1
1
1
1
1
1
1
1
1
1
1
1
1
1
1
1
1
1
1
1
1
1
1
1
1
1
1
1
1
1
1.00003
4.00158
8.85446
9.30332
9.33466
9.3483
9.34605
9.34105
9.33065
9.31442
9.29287
9.26618
9.2344
9.19779
9.15702
9.11257
9.06422
9.01181
8.95391
8.88937
8.81653
8.73538
8.64587
8.5491
8.44518
8.33462
8.21609
8.08845
7.9512
7.79857
7.63858
7.45928
7.27392
7.08566
6.87366
6.65784
6.44123
6.21218
5.98004
5.73284
1
1
1
1
1
1
1
1
1
1
1
1
1
1
1
1
1
1
1
1
1
1
1
1
1
1
1
1
1
1
1
1
1
1
1
1
1
1
1
1
1
1
1
1
1
1
1
1
1
1
1
1
1
1
1
1
0.999998
1.91846
8.13295
9.42102
9.33614
9.31393
9.30036
9.29199
9.28037
9.2639
9.24234
9.21562
9.18344
9.1459
9.10385
9.05773
9.00761
8.95354
8.89462
8.82979
8.75738
8.67683
8.58756
8.4903
8.38572
8.27439
8.1561
8.0297
7.89556
7.74634
7.59076
7.41605
7.24147
7.05502
6.84882
6.64911
6.43976
6.22121
5.99449
5.76068
1
1
1
1
1
1
1
1
1
1
1
1
1
1
1
1
1
1
1
1
1
1
1
1
1
1
1
1
1
1
1
1
1
1
1
1
1
1
1
1
1
1
1
1
1
1
1
1
1
1
1
1
1
1
1
1
0.999999
1.07483
6.42926
9.19829
9.22898
9.24437
9.24483
9.24
9.22828
9.21238
9.19153
9.16526
9.13325
9.09529
9.05235
9.00489
8.95323
8.89752
8.8373
8.77171
8.69947
8.61968
8.53132
8.43466
8.3303
8.21882
8.10074
7.97454
7.84239
7.69731
7.54567
7.37792
7.21112
7.02539
6.83196
6.64137
6.43664
6.22777
6.01147
5.79299
1
1
1
1
1
1
1
1
1
1
1
1
1
1
1
1
1
1
1
1
1
1
1
1
1
1
1
1
1
1
1
1
1
1
1
1
1
1
1
1
1
1
1
1
1
1
1
1
1
1
1
1
1
1
1
1
1
1.00025
3.98244
8.74906
9.18764
9.20558
9.21341
9.20709
9.19127
9.17193
9.14832
9.11989
9.08629
9.04705
9.00286
8.95404
8.90098
8.84375
8.78221
8.71567
8.64327
8.56398
8.47682
8.38133
8.27796
8.16718
8.04948
7.92245
7.79139
7.65091
7.50268
7.34338
7.18067
6.9992
6.81858
6.63155
6.43363
6.23462
6.02984
5.82067
1
1
1
1
1
1
1
1
1
1
1
1
1
1
1
1
1
1
1
1
1
1
1
1
1
1
1
1
1
1
1
1
1
1
1
1
1
1
1
1
1
1
1
1
1
1
1
1
1
1
1
1
1
1
1
1
1
0.999997
1.78552
7.97341
9.34141
9.22199
9.18445
9.16005
9.14128
9.12211
9.09901
9.07077
9.03722
8.99806
8.95359
8.90414
8.85021
8.79189
8.72919
8.66166
8.58883
8.50977
8.42371
8.33003
8.22779
8.11956
8.00178
7.87446
7.74459
7.60761
7.46237
7.31106
7.15117
6.97779
6.80464
6.622
6.4333
6.24177
6.04679
5.84354
1
1
1
1
1
1
1
1
1
1
1
1
1
1
1
1
1
1
1
1
1
1
1
1
1
1
1
1
1
1
1
1
1
1
1
1
1
1
1
1
1
1
1
1
1
1
1
1
1
1
1
1
1
1
1
1
1
0.999999
1.05391
6.18268
9.03312
9.09962
9.1227
9.1087
9.0928
9.07345
9.05088
9.02303
8.98972
8.95077
8.90624
8.85628
8.80154
8.74213
8.6783
8.60981
8.53638
8.45724
8.37188
8.27963
8.17953
8.07237
7.95629
7.83077
7.70248
7.56677
7.42441
7.27922
7.12268
6.95784
6.7894
6.6141
6.43363
6.24683
6.06033
5.86314
1
1
1
1
1
1
1
1
1
1
1
1
1
1
1
1
1
1
1
1
1
1
1
1
1
1
1
1
1
1
1
1
1
1
1
1
1
1
1
1
1
1
1
1
1
1
1
1
1
1
1
1
1
1
1
1
1
1
1.00006
3.54463
8.53662
9.10721
9.0904
9.06402
9.05381
9.03807
9.01247
8.9811
8.94594
8.90614
8.86106
8.8104
8.7548
8.69439
8.62955
8.56019
8.48616
8.40688
8.32193
8.23082
8.13255
8.02635
7.91366
7.79128
7.66478
7.52931
7.39008
7.24831
7.09588
6.93819
6.77467
6.60787
6.43303
6.25108
6.07315
5.88286
1
1
1
1
1
1
1
1
1
1
1
1
1
1
1
1
1
1
1
1
1
1
1
1
1
1
1
1
1
1
1
1
1
1
1
1
1
1
1
1
1
1
1
1
1
1
1
1
1
1
1
1
1
1
1
1
1
1
0.999999
1.43568
7.56389
9.25617
9.09031
9.04401
9.01218
8.99232
8.96265
8.93118
8.89741
8.85914
8.81502
8.76481
8.70909
8.64811
8.5825
8.51241
8.4378
8.35821
8.27343
8.18307
8.08631
7.98259
7.87187
7.75307
7.62881
7.4948
7.35903
7.21883
7.07066
6.91849
6.76029
6.60124
6.43083
6.2545
6.08496
5.90188
1
1
1
1
1
1
1
1
1
1
1
1
1
1
1
1
1
1
1
1
1
1
1
1
1
1
1
1
1
1
1
1
1
1
1
1
1
1
1
1
1
1
1
1
1
1
1
1
1
1
1
1
1
1
1
1
1
1
1
1.0169
5.54763
8.80456
8.9016
8.95244
8.97118
8.95155
8.91702
8.88527
8.85251
8.81498
8.77125
8.72131
8.66553
8.60422
8.53802
8.46732
8.39217
8.31229
8.22758
8.1377
8.04212
7.94035
7.83175
7.71655
7.59466
7.4638
7.33125
7.19223
7.04807
6.89964
6.74646
6.59385
6.42797
6.25816
6.09613
5.91975
1
1
1
1
1
1
1
1
1
1
1
1
1
1
1
1
1
1
1
1
1
1
1
1
1
1
1
1
1
1
1
1
1
1
1
1
1
1
1
1
1
1
1
1
1
1
1
1
1
1
1
1
1
1
1
1
1
1
1
0.999919
2.86384
8.20588
8.97296
8.97899
8.96055
8.91012
8.87277
8.84349
8.81116
8.77279
8.72841
8.67841
8.62264
8.56126
8.49474
8.42365
8.34805
8.26794
8.18321
8.09373
7.99907
7.89879
7.79249
7.68056
7.56135
7.43492
7.30538
7.16835
7.02816
6.88262
6.73376
6.58564
6.42446
6.26143
6.10507
5.93604
1
1
1
1
1
1
1
1
1
1
1
1
1
1
1
1
1
1
1
1
1
1
1
1
1
1
1
1
1
1
1
1
1
1
1
1
1
1
1
1
1
1
1
1
1
1
1
1
1
1
1
1
1
1
1
1
1
1
1
0.999979
1.25244
6.79744
9.02364
8.94723
8.90382
8.8542
8.82571
8.80068
8.76779
8.72812
8.6838
8.63468
8.57993
8.51943
8.45332
8.38236
8.30667
8.22657
8.14183
8.05265
7.95862
7.85954
7.75537
7.64609
7.52961
7.40768
7.28099
7.1469
7.01067
6.86795
6.72244
6.5778
6.42153
6.26477
6.11264
5.95148
1
1
1
1
1
1
1
1
1
1
1
1
1
1
1
1
1
1
1
1
1
1
1
1
1
1
1
1
1
1
1
1
1
1
1
1
1
1
1
1
1
1
1
1
1
1
1
1
1
1
1
1
1
1
1
1
1
1
1
0.999996
1.00505
4.30957
8.53546
8.84739
8.83681
8.80674
8.79752
8.7716
8.73348
8.69016
8.6446
8.59483
8.53984
8.47923
8.41308
8.34207
8.26632
8.18632
8.10177
8.01306
7.91976
7.82186
7.71958
7.61243
7.49878
7.38095
7.2574
7.12717
6.99513
6.85542
6.71287