/*--------------------------------*- C++ -*----------------------------------*\
  =========                 |
  \\      /  F ield         | OpenFOAM: The Open Source CFD Toolbox
   \\    /   O peration     | Website:  https://openfoam.org
    \\  /    A nd           | Version:  7
     \\/     M anipulation  |
\*---------------------------------------------------------------------------*/
FoamFile
{
    version     2.0;
    format      ascii;
    class       volScalarField;
    location    "3.7";
    object      rho;
}
// * * * * * * * * * * * * * * * * * * * * * * * * * * * * * * * * * * * * * //

dimensions      [1 -3 0 0 0 0 0];

internalField   nonuniform List<scalar> 
64512
(
1.40001
1.40001
1.40001
1.40001
1.40001
1.40001
1.40001
1.40001
1.40001
1.40001
1.40001
1.40001
1.40001
1.40001
1.40001
1.40001
1.40001
1.40001
1.40001
1.40001
1.40001
1.40001
1.40001
1.40001
1.40001
1.40001
1.40001
1.40001
1.40001
1.40001
1.40001
1.40001
1.40001
1.40001
1.40001
1.40001
1.40001
1.40001
1.40001
1.40001
1.40001
1.40001
1.40001
1.40001
1.40001
1.40001
1.40001
1.40001
1.41119
4.09877
5.42848
5.43902
5.45563
5.47528
5.49551
5.5172
5.5406
5.56509
5.58888
5.61018
5.6283
5.64394
5.65875
5.67431
5.69127
5.70903
5.7266
5.74333
5.75896
5.7738
5.78868
5.80429
5.82016
5.83558
5.85033
5.86421
5.87698
5.88858
5.8993
5.90959
5.9198
5.93004
5.94022
5.95005
5.95914
5.96716
5.97399
5.97985
5.98517
5.99027
5.99515
5.99933
6.00239
6.00413
6.00509
6.00575
1.40001
1.40001
1.40001
1.40001
1.40001
1.40001
1.40001
1.40001
1.40001
1.40001
1.40001
1.40001
1.40001
1.40001
1.40001
1.40001
1.40001
1.40001
1.40001
1.40001
1.40001
1.40001
1.40001
1.40001
1.40001
1.40001
1.40001
1.40001
1.40001
1.40001
1.40001
1.40001
1.40001
1.40001
1.40001
1.40001
1.40001
1.40001
1.40001
1.40001
1.40001
1.40001
1.40001
1.40001
1.40001
1.40001
1.40001
1.40001
1.40607
4.0842
5.42426
5.43948
5.45581
5.47515
5.49499
5.5164
5.53964
5.56409
5.58794
5.60939
5.62771
5.64354
5.65843
5.67397
5.69084
5.70846
5.72593
5.74265
5.75834
5.77332
5.78829
5.8039
5.81962
5.83484
5.84938
5.86313
5.87585
5.8875
5.8983
5.90865
5.91889
5.92912
5.93928
5.94907
5.95813
5.96613
5.97298
5.97887
5.98422
5.9893
5.9941
5.99815
6.00111
6.00281
6.0038
6.00452
1.40001
1.40001
1.40001
1.40001
1.40001
1.40001
1.40001
1.40001
1.40001
1.40001
1.40001
1.40001
1.40001
1.40001
1.40001
1.40001
1.40001
1.40001
1.40001
1.40001
1.40001
1.40001
1.40001
1.40001
1.40001
1.40001
1.40001
1.40001
1.40001
1.40001
1.40001
1.40001
1.40001
1.40001
1.40001
1.40001
1.40001
1.40001
1.40001
1.40001
1.40001
1.40001
1.40001
1.40001
1.40001
1.40001
1.40001
1.40001
1.40066
4.05026
5.42026
5.43734
5.4541
5.47376
5.49362
5.51491
5.538
5.56232
5.58613
5.60765
5.62621
5.6423
5.65735
5.67295
5.68979
5.70731
5.72468
5.74142
5.75717
5.77232
5.7874
5.803
5.81855
5.83352
5.84783
5.86143
5.87412
5.88582
5.89671
5.90712
5.91737
5.92762
5.93778
5.94757
5.9566
5.96456
5.97138
5.97728
5.98263
5.98769
5.99238
5.99627
5.99908
6.0007
6.00172
6.00253
1.40001
1.40001
1.40001
1.40001
1.40001
1.40001
1.40001
1.40001
1.40001
1.40001
1.40001
1.40001
1.40001
1.40001
1.40001
1.40001
1.40001
1.40001
1.40001
1.40001
1.40001
1.40001
1.40001
1.40001
1.40001
1.40001
1.40001
1.40001
1.40001
1.40001
1.40001
1.40001
1.40001
1.40001
1.40001
1.40001
1.40001
1.40001
1.40001
1.40001
1.40001
1.40001
1.40001
1.40001
1.40001
1.40001
1.40001
1.40001
1.40003
3.99767
5.41516
5.43525
5.45251
5.4727
5.49251
5.51336
5.53588
5.55969
5.58316
5.60456
5.62328
5.63969
5.65499
5.67075
5.68767
5.7052
5.7226
5.7395
5.75535
5.77068
5.78585
5.80136
5.81665
5.83133
5.84538
5.85884
5.87151
5.88328
5.89425
5.90472
5.91499
5.92523
5.93541
5.94522
5.95427
5.96224
5.96908
5.97501
5.98038
5.98535
5.98985
5.99347
5.99602
5.99751
5.99853
5.99941
1.40001
1.40001
1.40001
1.40001
1.40001
1.40001
1.40001
1.40001
1.40001
1.40001
1.40001
1.40001
1.40001
1.40001
1.40001
1.40001
1.40001
1.40001
1.40001
1.40001
1.40001
1.40001
1.40001
1.40001
1.40001
1.40001
1.40001
1.40001
1.40001
1.40001
1.40001
1.40001
1.40001
1.40001
1.40001
1.40001
1.40001
1.40001
1.40001
1.40001
1.40001
1.40001
1.40001
1.40001
1.40001
1.40001
1.40001
1.40001
1.40001
3.92682
5.40868
5.43177
5.44925
5.46996
5.48995
5.5107
5.53295
5.55649
5.5798
5.6012
5.62011
5.6368
5.65229
5.66808
5.68499
5.70253
5.71998
5.73705
5.75302
5.76849
5.78366
5.79898
5.81395
5.82831
5.84214
5.8555
5.86819
5.88003
5.89106
5.90153
5.91176
5.92198
5.93216
5.94203
5.95114
5.95917
5.96609
5.97209
5.97747
5.98236
5.98662
5.98992
5.99216
5.99348
5.99447
5.99539
1.40001
1.40001
1.40001
1.40001
1.40001
1.40001
1.40001
1.40001
1.40001
1.40001
1.40001
1.40001
1.40001
1.40001
1.40001
1.40001
1.40001
1.40001
1.40001
1.40001
1.40001
1.40001
1.40001
1.40001
1.40001
1.40001
1.40001
1.40001
1.40001
1.40001
1.40001
1.40001
1.40001
1.40001
1.40001
1.40001
1.40001
1.40001
1.40001
1.40001
1.40001
1.40001
1.40001
1.40001
1.40001
1.40001
1.40001
1.40001
1.40001
3.83769
5.40037
5.42655
5.44466
5.46629
5.48684
5.50778
5.52998
5.55332
5.57637
5.5975
5.61624
5.63289
5.64835
5.66412
5.68111
5.69884
5.71653
5.73398
5.75019
5.76582
5.78092
5.79593
5.81047
5.82444
5.83804
5.85135
5.86409
5.876
5.88706
5.89749
5.90762
5.91776
5.92795
5.9379
5.94714
5.95531
5.96234
5.96841
5.97379
5.97855
5.98256
5.98553
5.98748
5.98866
5.98962
5.99058
1.40001
1.40001
1.40001
1.40001
1.40001
1.40001
1.40001
1.40001
1.40001
1.40001
1.40001
1.40001
1.40001
1.40001
1.40001
1.40001
1.40001
1.40001
1.40001
1.40001
1.40001
1.40001
1.40001
1.40001
1.40001
1.40001
1.40001
1.40001
1.40001
1.40001
1.40001
1.40001
1.40001
1.40001
1.40001
1.40001
1.40001
1.40001
1.40001
1.40001
1.40001
1.40001
1.40001
1.40001
1.40001
1.40001
1.40001
1.40001
1.40001
3.72987
5.38982
5.42023
5.43933
5.46189
5.48302
5.50426
5.52652
5.5498
5.57269
5.59362
5.61219
5.62877
5.64408
5.65968
5.67664
5.69453
5.71245
5.7303
5.7468
5.76258
5.77759
5.79221
5.80624
5.81975
5.83313
5.84642
5.85927
5.87128
5.88235
5.89269
5.90266
5.91265
5.92281
5.93286
5.94229
5.95068
5.95789
5.96405
5.96939
5.97396
5.97765
5.98026
5.98192
5.98293
5.98383
5.98478
1.40001
1.40001
1.40001
1.40001
1.40001
1.40001
1.40001
1.40001
1.40001
1.40001
1.40001
1.40001
1.40001
1.40001
1.40001
1.40001
1.40001
1.40001
1.40001
1.40001
1.40001
1.40001
1.40001
1.40001
1.40001
1.40001
1.40001
1.40001
1.40001
1.40001
1.40001
1.40001
1.40001
1.40001
1.40001
1.40001
1.40001
1.40001
1.40001
1.40001
1.40001
1.40001
1.40001
1.40001
1.40001
1.40001
1.40001
1.40001
1.40001
3.60346
5.3761
5.41327
5.43352
5.45692
5.47864
5.50034
5.52286
5.54627
5.5692
5.59002
5.60832
5.62462
5.63953
5.65471
5.67143
5.6894
5.70755
5.72589
5.74282
5.75882
5.77379
5.78796
5.80137
5.8143
5.82734
5.8406
5.85357
5.86572
5.87685
5.88708
5.89683
5.90663
5.91673
5.9269
5.93658
5.94526
5.9527
5.95896
5.96422
5.96854
5.9719
5.97417
5.97554
5.97637
5.97714
5.97798
1.40001
1.40001
1.40001
1.40001
1.40001
1.40001
1.40001
1.40001
1.40001
1.40001
1.40001
1.40001
1.40001
1.40001
1.40001
1.40001
1.40001
1.40001
1.40001
1.40001
1.40001
1.40001
1.40001
1.40001
1.40001
1.40001
1.40001
1.40001
1.40001
1.40001
1.40001
1.40001
1.40001
1.40001
1.40001
1.40001
1.40001
1.40001
1.40001
1.40001
1.40001
1.40001
1.40001
1.40001
1.40001
1.40001
1.40001
1.40001
1.40001
3.45852
5.35839
5.40624
5.42752
5.4517
5.47399
5.49622
5.51912
5.54283
5.56595
5.58679
5.60483
5.62072
5.63507
5.64954
5.66577
5.68366
5.70201
5.72086
5.73834
5.75467
5.76968
5.78339
5.7961
5.80826
5.82082
5.83392
5.84699
5.8593
5.87049
5.8806
5.89008
5.8996
5.90958
5.91985
5.9298
5.9388
5.94651
5.95287
5.95803
5.96212
5.96519
5.96721
5.96839
5.96909
5.96969
5.97038
1.40001
1.40001
1.40001
1.40001
1.40001
1.40001
1.40001
1.40001
1.40001
1.40001
1.40001
1.40001
1.40001
1.40001
1.40001
1.40001
1.40001
1.40001
1.40001
1.40001
1.40001
1.40001
1.40001
1.40001
1.40001
1.40001
1.40001
1.40001
1.40001
1.40001
1.40001
1.40001
1.40001
1.40001
1.40001
1.40001
1.40001
1.40001
1.40001
1.40001
1.40001
1.40001
1.40001
1.40001
1.40001
1.40001
1.40001
1.40001
1.40001
3.29476
5.33514
5.39987
5.42137
5.44637
5.46929
5.49205
5.51539
5.53948
5.56298
5.58405
5.60197
5.61745
5.63108
5.64451
5.6598
5.67728
5.69569
5.71501
5.73315
5.74993
5.76515
5.77851
5.79052
5.80182
5.81377
5.82664
5.83977
5.85228
5.86358
5.87359
5.88276
5.89192
5.90169
5.91199
5.92215
5.93144
5.93936
5.94575
5.95077
5.9546
5.95742
5.95925
5.96032
5.96088
5.96128
5.9618
1.40001
1.40001
1.40001
1.40001
1.40001
1.40001
1.40001
1.40001
1.40001
1.40001
1.40001
1.40001
1.40001
1.40001
1.40001
1.40001
1.40001
1.40001
1.40001
1.40001
1.40001
1.40001
1.40001
1.40001
1.40001
1.40001
1.40001
1.40001
1.40001
1.40001
1.40001
1.40001
1.40001
1.40001
1.40001
1.40001
1.40001
1.40001
1.40001
1.40001
1.40001
1.40001
1.40001
1.40001
1.40001
1.40001
1.40001
1.40001
1.40001
3.11158
5.30528
5.39622
5.41604
5.44107
5.46442
5.48771
5.51151
5.53607
5.56011
5.58166
5.59975
5.61498
5.62796
5.64013
5.65401
5.67061
5.68875
5.70831
5.72705
5.74427
5.7598
5.77294
5.7843
5.79467
5.80587
5.81838
5.83153
5.84424
5.85573
5.86573
5.87465
5.88348
5.89303
5.90332
5.91366
5.92318
5.93123
5.93757
5.94239
5.94598
5.94862
5.95036
5.95137
5.95184
5.95203
5.95243
1.40001
1.40001
1.40001
1.40001
1.40001
1.40001
1.40001
1.40001
1.40001
1.40001
1.40001
1.40001
1.40001
1.40001
1.40001
1.40001
1.40001
1.40001
1.40001
1.40001
1.40001
1.40001
1.40001
1.40001
1.40001
1.40001
1.40001
1.40001
1.40001
1.40001
1.40001
1.40001
1.40001
1.40001
1.40001
1.40001
1.40001
1.40001
1.40001
1.40001
1.40001
1.40001
1.40001
1.40001
1.40001
1.40001
1.40001
1.40001
1.40001
2.90901
5.26474
5.39687
5.41396
5.43772
5.46039
5.48365
5.50767
5.53269
5.55738
5.57963
5.59819
5.61342
5.62598
5.63697
5.64922
5.66451
5.68202
5.70148
5.72067
5.73824
5.75408
5.76703
5.77775
5.78706
5.7973
5.80924
5.82227
5.83515
5.84687
5.85693
5.86568
5.8742
5.88354
5.8938
5.90426
5.91391
5.92199
5.92822
5.93283
5.93621
5.93871
5.94039
5.94131
5.94166
5.94167
5.94197
1.40001
1.40001
1.40001
1.40001
1.40001
1.40001
1.40001
1.40001
1.40001
1.40001
1.40001
1.40001
1.40001
1.40001
1.40001
1.40001
1.40001
1.40001
1.40001
1.40001
1.40001
1.40001
1.40001
1.40001
1.40001
1.40001
1.40001
1.40001
1.40001
1.40001
1.40001
1.40001
1.40001
1.40001
1.40001
1.40001
1.40001
1.40001
1.40001
1.40001
1.40001
1.40001
1.40001
1.40001
1.40001
1.40001
1.40001
1.40001
1.40001
2.69068
5.20402
5.40309
5.41607
5.43701
5.45746
5.47971
5.50331
5.52845
5.55365
5.57667
5.596
5.61162
5.62415
5.63427
5.64486
5.65852
5.67503
5.69404
5.71354
5.73142
5.74772
5.76075
5.77108
5.77941
5.78857
5.79973
5.81242
5.82531
5.83719
5.84733
5.85595
5.86419
5.87328
5.88344
5.8939
5.90356
5.91156
5.91761
5.92201
5.92524
5.92768
5.92934
5.93017
5.9304
5.93029
5.93054
1.40001
1.40001
1.40001
1.40001
1.40001
1.40001
1.40001
1.40001
1.40001
1.40001
1.40001
1.40001
1.40001
1.40001
1.40001
1.40001
1.40001
1.40001
1.40001
1.40001
1.40001
1.40001
1.40001
1.40001
1.40001
1.40001
1.40001
1.40001
1.40001
1.40001
1.40001
1.40001
1.40001
1.40001
1.40001
1.40001
1.40001
1.40001
1.40001
1.40001
1.40001
1.40001
1.40001
1.40001
1.40001
1.40001
1.40001
1.40001
1.40001
2.45967
5.11637
5.41286
5.4212
5.43911
5.45702
5.47761
5.50001
5.52425
5.54906
5.57239
5.59245
5.60872
5.62169
5.63158
5.6409
5.65289
5.66812
5.68628
5.70585
5.72389
5.74057
5.7538
5.76394
5.77143
5.77949
5.78972
5.80194
5.81474
5.82677
5.83703
5.84555
5.85349
5.86223
5.87215
5.88245
5.89196
5.89978
5.90565
5.9099
5.91306
5.91547
5.91708
5.91776
5.91784
5.91759
5.9178
1.40001
1.40001
1.40001
1.40001
1.40001
1.40001
1.40001
1.40001
1.40001
1.40001
1.40001
1.40001
1.40001
1.40001
1.40001
1.40001
1.40001
1.40001
1.40001
1.40001
1.40001
1.40001
1.40001
1.40001
1.40001
1.40001
1.40001
1.40001
1.40001
1.40001
1.40001
1.40001
1.40001
1.40001
1.40001
1.40001
1.40001
1.40001
1.40001
1.40001
1.40001
1.40001
1.40001
1.40001
1.40001
1.40001
1.40001
1.40001
1.40001
2.22729
4.99727
5.42617
5.43028
5.44556
5.46028
5.47866
5.49899
5.52158
5.54542
5.56851
5.58895
5.6059
5.61959
5.6299
5.63838
5.64859
5.66195
5.6784
5.69742
5.71531
5.7322
5.74579
5.7561
5.76312
5.7702
5.77941
5.79099
5.80357
5.81562
5.82598
5.8344
5.842
5.85031
5.85983
5.86981
5.87905
5.88662
5.8923
5.89646
5.89959
5.90198
5.90352
5.90405
5.90398
5.90361
5.90382
1.40001
1.40001
1.40001
1.40001
1.40001
1.40001
1.40001
1.40001
1.40001
1.40001
1.40001
1.40001
1.40001
1.40001
1.40001
1.40001
1.40001
1.40001
1.40001
1.40001
1.40001
1.40001
1.40001
1.40001
1.40001
1.40001
1.40001
1.40001
1.40001
1.40001
1.40001
1.40001
1.40001
1.40001
1.40001
1.40001
1.40001
1.40001
1.40001
1.40001
1.40001
1.40001
1.40001
1.40001
1.40001
1.40001
1.40001
1.40001
1.40001
1.99811
4.8467
5.43875
5.43945
5.4542
5.46551
5.48119
5.49906
5.51945
5.54186
5.56435
5.58493
5.6025
5.61694
5.62811
5.63643
5.64533
5.65677
5.67105
5.68894
5.70643
5.72329
5.73721
5.74787
5.75461
5.76068
5.76862
5.7793
5.79147
5.80352
5.81405
5.82251
5.82982
5.83761
5.84656
5.85603
5.86483
5.87207
5.87755
5.88162
5.88475
5.8871
5.88849
5.88882
5.88856
5.88805
5.88825
1.40001
1.40001
1.40001
1.40001
1.40001
1.40001
1.40001
1.40001
1.40001
1.40001
1.40001
1.40001
1.40001
1.40001
1.40001
1.40001
1.40001
1.40001
1.40001
1.40001
1.40001
1.40001
1.40001
1.40001
1.40001
1.40001
1.40001
1.40001
1.40001
1.40001
1.40001
1.40001
1.40001
1.40001
1.40001
1.40001
1.40001
1.40001
1.40001
1.40001
1.40001
1.40001
1.40001
1.40001
1.40001
1.40001
1.40001
1.40001
1.40001
1.78506
4.67522
5.45495
5.44396
5.46072
5.47081
5.48457
5.4999
5.51793
5.53824
5.5595
5.57984
5.59783
5.61293
5.62516
5.63413
5.64254
5.65248
5.6646
5.68083
5.69761
5.71407
5.72807
5.73903
5.7457
5.75087
5.75749
5.76708
5.77872
5.79071
5.80141
5.80991
5.81688
5.82395
5.83206
5.84078
5.84902
5.85591
5.86119
5.86521
5.86833
5.87064
5.87188
5.87204
5.87164
5.87103
5.87122
1.40001
1.40001
1.40001
1.40001
1.40001
1.40001
1.40001
1.40001
1.40001
1.40001
1.40001
1.40001
1.40001
1.40001
1.40001
1.40001
1.40001
1.40001
1.40001
1.40001
1.40001
1.40001
1.40001
1.40001
1.40001
1.40001
1.40001
1.40001
1.40001
1.40001
1.40001
1.40001
1.40001
1.40001
1.40001
1.40001
1.40001
1.40001
1.40001
1.40001
1.40001
1.40001
1.40001
1.40001
1.40001
1.40001
1.40001
1.40001
1.40001
1.59133
4.45293
5.45503
5.4383
5.45431
5.46542
5.47992
5.49503
5.51248
5.53222
5.55302
5.57313
5.59126
5.60689
5.62024
5.63059
5.63941
5.64861
5.65898
5.67307
5.68878
5.70458
5.71848
5.72967
5.73652
5.74104
5.74633
5.75462
5.76546
5.77716
5.7879
5.79638
5.80292
5.80915
5.81626
5.82411
5.83175
5.83831
5.84343
5.84734
5.85036
5.85251
5.85353
5.85345
5.85283
5.85205
5.85215
1.40001
1.40001
1.40001
1.40001
1.40001
1.40001
1.40001
1.40001
1.40001
1.40001
1.40001
1.40001
1.40001
1.40001
1.40001
1.40001
1.40001
1.40001
1.40001
1.40001
1.40001
1.40001
1.40001
1.40001
1.40001
1.40001
1.40001
1.40001
1.40001
1.40001
1.40001
1.40001
1.40001
1.40001
1.40001
1.40001
1.40001
1.40001
1.40001
1.40001
1.40001
1.40001
1.40001
1.40001
1.40001
1.40001
1.40001
1.40001
1.40001
1.43994
4.20146
5.41616
5.41409
5.43552
5.45237
5.47
5.48738
5.50552
5.52459
5.54421
5.56376
5.58209
5.59826
5.61259
5.62467
5.6347
5.64405
5.65338
5.66526
5.67966
5.69464
5.7084
5.71968
5.72694
5.73111
5.7352
5.742
5.75174
5.76288
5.77345
5.78183
5.78789
5.79315
5.7991
5.80592
5.81286
5.81902
5.82388
5.82757
5.83037
5.8323
5.83315
5.83291
5.83216
5.83124
5.83127
1.40001
1.40001
1.40001
1.40001
1.40001
1.40001
1.40001
1.40001
1.40001
1.40001
1.40001
1.40001
1.40001
1.40001
1.40001
1.40001
1.40001
1.40001
1.40001
1.40001
1.40001
1.40001
1.40001
1.40001
1.40001
1.40001
1.40001
1.40001
1.40001
1.40001
1.40001
1.40001
1.40001
1.40001
1.40001
1.40001
1.40001
1.40001
1.40001
1.40001
1.40001
1.40001
1.40001
1.40001
1.40001
1.40001
1.40001
1.40001
1.40001
1.40115
3.87518
5.33692
5.38401
5.41004
5.4316
5.45087
5.47
5.48955
5.5098
5.5301
5.54992
5.56855
5.58569
5.60136
5.61529
5.6271
5.63757
5.64697
5.6572
5.67023
5.68422
5.69781
5.70902
5.71676
5.72089
5.72403
5.72925
5.73761
5.74788
5.75803
5.76615
5.77165
5.77587
5.78054
5.78624
5.79241
5.79812
5.80268
5.80605
5.80849
5.81005
5.81059
5.8101
5.80911
5.80793
5.80775
1.40001
1.40001
1.40001
1.40001
1.40001
1.40001
1.40001
1.40001
1.40001
1.40001
1.40001
1.40001
1.40001
1.40001
1.40001
1.40001
1.40001
1.40001
1.40001
1.40001
1.40001
1.40001
1.40001
1.40001
1.40001
1.40001
1.40001
1.40001
1.40001
1.40001
1.40001
1.40001
1.40001
1.40001
1.40001
1.40001
1.40001
1.40001
1.40001
1.40001
1.40001
1.40001
1.40001
1.40001
1.40001
1.40001
1.40001
1.40001
1.40001
1.40001
3.53503
5.27311
5.35179
5.38499
5.41437
5.4381
5.45869
5.47777
5.49676
5.51597
5.53542
5.55426
5.57139
5.58743
5.60258
5.61607
5.62808
5.63847
5.64812
5.66006
5.67302
5.68636
5.69743
5.70565
5.71002
5.71255
5.71629
5.72307
5.73217
5.74158
5.74923
5.75411
5.75726
5.76059
5.76504
5.77027
5.77531
5.77934
5.78217
5.78404
5.78511
5.78531
5.78465
5.78355
5.78221
5.78193
1.40001
1.40001
1.40001
1.40001
1.40001
1.40001
1.40001
1.40001
1.40001
1.40001
1.40001
1.40001
1.40001
1.40001
1.40001
1.40001
1.40001
1.40001
1.40001
1.40001
1.40001
1.40001
1.40001
1.40001
1.40001
1.40001
1.40001
1.40001
1.40001
1.40001
1.40001
1.40001
1.40001
1.40001
1.40001
1.40001
1.40001
1.40001
1.40001
1.40001
1.40001
1.40001
1.40001
1.40001
1.40001
1.40001
1.40001
1.40001
1.40001
1.40001
3.15896
5.20782
5.33966
5.37043
5.39779
5.42196
5.4436
5.46373
5.4832
5.5023
5.52111
5.53935
5.55626
5.57183
5.58691
5.6012
5.61459
5.62684
5.63714
5.64861
5.66075
5.6737
5.68467
5.69326
5.69812
5.70044
5.70295
5.70805
5.71568
5.72403
5.73096
5.73513
5.73723
5.73921
5.74231
5.74638
5.75054
5.75388
5.75608
5.75727
5.75772
5.75734
5.7562
5.75468
5.75301
5.75249
1.40001
1.40001
1.40001
1.40001
1.40001
1.40001
1.40001
1.40001
1.40001
1.40001
1.40001
1.40001
1.40001
1.40001
1.40001
1.40001
1.40001
1.40001
1.40001
1.40001
1.40001
1.40001
1.40001
1.40001
1.40001
1.40001
1.40001
1.40001
1.40001
1.40001
1.40001
1.40001
1.40001
1.40001
1.40001
1.40001
1.40001
1.40001
1.40001
1.40001
1.40001
1.40001
1.40001
1.40001
1.40001
1.40001
1.40001
1.40001
1.40001
1.40001
2.76139
5.13105
5.34705
5.3713
5.39646
5.41811
5.43628
5.45321
5.47034
5.48785
5.50589
5.52392
5.54097
5.55635
5.57095
5.58471
5.59858
5.6116
5.62343
5.63511
5.64684
5.65937
5.67036
5.67927
5.6848
5.68727
5.68893
5.69239
5.69831
5.7053
5.71128
5.71465
5.71575
5.7164
5.718
5.7206
5.72347
5.72576
5.72698
5.72721
5.72675
5.72565
5.72406
5.72222
5.72036
5.71981
1.40001
1.40001
1.40001
1.40001
1.40001
1.40001
1.40001
1.40001
1.40001
1.40001
1.40001
1.40001
1.40001
1.40001
1.40001
1.40001
1.40001
1.40001
1.40001
1.40001
1.40001
1.40001
1.40001
1.40001
1.40001
1.40001
1.40001
1.40001
1.40001
1.40001
1.40001
1.40001
1.40001
1.40001
1.40001
1.40001
1.40001
1.40001
1.40001
1.40001
1.40001
1.40001
1.40001
1.40001
1.40001
1.40001
1.40001
1.40001
1.40001
1.40001
2.36426
5.00277
5.38525
5.38785
5.40105
5.41497
5.43134
5.44819
5.4641
5.47909
5.49413
5.50947
5.52493
5.53989
5.55387
5.56743
5.58059
5.59471
5.60711
5.61905
5.631
5.64313
5.65418
5.66333
5.66955
5.67247
5.6737
5.67574
5.6799
5.68532
5.69014
5.69257
5.69272
5.69207
5.69197
5.69276
5.69393
5.69495
5.69513
5.69427
5.69267
5.69048
5.68785
5.68508
5.68256
5.6816
1.40001
1.40001
1.40001
1.40001
1.40001
1.40001
1.40001
1.40001
1.40001
1.40001
1.40001
1.40001
1.40001
1.40001
1.40001
1.40001
1.40001
1.40001
1.40001
1.40001
1.40001
1.40001
1.40001
1.40001
1.40001
1.40001
1.40001
1.40001
1.40001
1.40001
1.40001
1.40001
1.40001
1.40001
1.40001
1.40001
1.40001
1.40001
1.40001
1.40001
1.40001
1.40001
1.40001
1.40001
1.40001
1.40001
1.40001
1.40001
1.40001
1.40001
1.96833
4.81582
5.44791
5.41804
5.42556
5.43265
5.44145
5.45059
5.46108
5.47305
5.48609
5.49961
5.51284
5.52556
5.53769
5.5498
5.56219
5.57482
5.58931
5.60109
5.61295
5.62461
5.63576
5.64509
5.65194
5.65554
5.65678
5.65779
5.6603
5.66404
5.66744
5.66899
5.66822
5.66601
5.66408
5.6628
5.6618
5.66104
5.65954
5.65695
5.65356
5.64979
5.646
5.64248
5.63956
5.63857
1.40001
1.40001
1.40001
1.40001
1.40001
1.40001
1.40001
1.40001
1.40001
1.40001
1.40001
1.40001
1.40001
1.40001
1.40001
1.40001
1.40001
1.40001
1.40001
1.40001
1.40001
1.40001
1.40001
1.40001
1.40001
1.40001
1.40001
1.40001
1.40001
1.40001
1.40001
1.40001
1.40001
1.40001
1.40001
1.40001
1.40001
1.40001
1.40001
1.40001
1.40001
1.40001
1.40001
1.40001
1.40001
1.40001
1.40001
1.40001
1.40001
1.40001
1.59777
4.53776
5.48939
5.43757
5.4336
5.43748
5.44599
5.45575
5.46517
5.47408
5.48311
5.49296
5.50331
5.51385
5.52414
5.53423
5.54487
5.55616
5.56836
5.58161
5.59322
5.60419
5.61493
5.6244
5.63169
5.63603
5.63761
5.63806
5.63917
5.64126
5.64324
5.6438
5.64192
5.63821
5.63414
5.63032
5.62685
5.6238
5.62021
5.61574
5.61043
5.6046
5.59859
5.59289
5.58837
5.58618
1.40001
1.40001
1.40001
1.40001
1.40001
1.40001
1.40001
1.40001
1.40001
1.40001
1.40001
1.40001
1.40001
1.40001
1.40001
1.40001
1.40001
1.40001
1.40001
1.40001
1.40001
1.40001
1.40001
1.40001
1.40001
1.40001
1.40001
1.40001
1.40001
1.40001
1.40001
1.40001
1.40001
1.40001
1.40001
1.40001
1.40001
1.40001
1.40001
1.40001
1.40001
1.40001
1.40001
1.40001
1.40001
1.40001
1.40001
1.40001
1.40001
1.40001
1.41013
4.13484
5.40806
5.38864
5.41617
5.43414
5.44705
5.45748
5.46781
5.47669
5.48402
5.49109
5.49833
5.50557
5.51303
5.52088
5.52947
5.53898
5.54962
5.56145
5.57244
5.58222
5.5923
5.60155
5.60886
5.61374
5.61585
5.6162
5.61627
5.61691
5.61754
5.61686
5.61372
5.60842
5.60207
5.59528
5.58885
5.58292
5.57651
5.56902
5.56025
5.55082
5.54168
5.53381
5.52821
5.52611
1.40001
1.40001
1.40001
1.40001
1.40001
1.40001
1.40001
1.40001
1.40001
1.40001
1.40001
1.40001
1.40001
1.40001
1.40001
1.40001
1.40001
1.40001
1.40001
1.40001
1.40001
1.40001
1.40001
1.40001
1.40001
1.40001
1.40001
1.40001
1.40001
1.40001
1.40001
1.40001
1.40001
1.40001
1.40001
1.40001
1.40001
1.40001
1.40001
1.40001
1.40001
1.40001
1.40001
1.40001
1.40001
1.40001
1.40001
1.40001
1.40001
1.40001
1.40002
3.62058
5.25769
5.34333
5.38664
5.41238
5.4343
5.45092
5.46305
5.47292
5.48223
5.48963
5.49567
5.50086
5.50579
5.51084
5.51664
5.52365
5.53209
5.54222
5.55207
5.5606
5.56859
5.57689
5.58396
5.58882
5.59129
5.59183
5.59121
5.5907
5.59002
5.58797
5.58345
5.57644
5.56768
5.55761
5.5476
5.53791
5.52779
5.51659
5.50412
5.4909
5.47753
5.46445
5.45374
5.44727
1.40001
1.40001
1.40001
1.40001
1.40001
1.40001
1.40001
1.40001
1.40001
1.40001
1.40001
1.40001
1.40001
1.40001
1.40001
1.40001
1.40001
1.40001
1.40001
1.40001
1.40001
1.40001
1.40001
1.40001
1.40001
1.40001
1.40001
1.40001
1.40001
1.40001
1.40001
1.40001
1.40001
1.40001
1.40001
1.40001
1.40001
1.40001
1.40001
1.40001
1.40001
1.40001
1.40001
1.40001
1.40001
1.40001
1.40001
1.40001
1.40001
1.40001
1.4
3.14675
5.14494
5.2974
5.35062
5.38942
5.41377
5.43188
5.44816
5.46336
5.47502
5.48412
5.49161
5.49705
5.50083
5.50377
5.50698
5.5112
5.51686
5.52434
5.53223
5.53921
5.54547
5.55167
5.55765
5.56213
5.56444
5.56507
5.56398
5.56259
5.56056
5.55706
5.55102
5.54221
5.53086
5.51718
5.50296
5.48869
5.47388
5.45768
5.43914
5.41807
5.39583
5.37509
5.35916
5.35312
1.40001
1.40001
1.40001
1.40001
1.40001
1.40001
1.40001
1.40001
1.40001
1.40001
1.40001
1.40001
1.40001
1.40001
1.40001
1.40001
1.40001
1.40001
1.40001
1.40001
1.40001
1.40001
1.40001
1.40001
1.40001
1.40001
1.40001
1.40001
1.40001
1.40001
1.40001
1.40001
1.40001
1.40001
1.40001
1.40001
1.40001
1.40001
1.40001
1.40001
1.40001
1.40001
1.40001
1.40001
1.40001
1.40001
1.40001
1.40001
1.40001
1.40001
1.40001
2.6615
4.99173
5.30167
5.34648
5.37539
5.39709
5.41542
5.4307
5.44574
5.45947
5.47214
5.48222
5.48987
5.49483
5.4975
5.49921
5.50106
5.50401
5.50857
5.51371
5.51834
5.52259
5.52682
5.53077
5.53411
5.5359
5.53602
5.53445
5.5323
5.52894
5.5239
5.51628
5.50548
5.49126
5.47397
5.45497
5.43513
5.41414
5.39096
5.3645
5.33499
5.30352
5.27191
5.23951
5.21306
1.40001
1.40001
1.40001
1.40001
1.40001
1.40001
1.40001
1.40001
1.40001
1.40001
1.40001
1.40001
1.40001
1.40001
1.40001
1.40001
1.40001
1.40001
1.40001
1.40001
1.40001
1.40001
1.40001
1.40001
1.40001
1.40001
1.40001
1.40001
1.40001
1.40001
1.40001
1.40001
1.40001
1.40001
1.40001
1.40001
1.40001
1.40001
1.40001
1.40001
1.40001
1.40001
1.40001
1.40001
1.40001
1.40001
1.40001
1.40001
1.40001
1.40001
1.40001
2.14799
4.82307
5.3607
5.35707
5.36935
5.38317
5.39893
5.41403
5.42832
5.44223
5.45497
5.46681
5.47733
5.48471
5.48898
5.49105
5.49196
5.49296
5.4949
5.49719
5.49905
5.50069
5.50235
5.50417
5.50556
5.50618
5.50526
5.50306
5.4999
5.49519
5.48854
5.47913
5.4661
5.44894
5.42784
5.40362
5.37727
5.34875
5.31713
5.28058
5.2371
5.18355
5.12039
5.05894
5.01543
1.40001
1.40001
1.40001
1.40001
1.40001
1.40001
1.40001
1.40001
1.40001
1.40001
1.40001
1.40001
1.40001
1.40001
1.40001
1.40001
1.40001
1.40001
1.40001
1.40001
1.40001
1.40001
1.40001
1.40001
1.40001
1.40001
1.40001
1.40001
1.40001
1.40001
1.40001
1.40001
1.40001
1.40001
1.40001
1.40001
1.40001
1.40001
1.40001
1.40001
1.40001
1.40001
1.40001
1.40001
1.40001
1.40001
1.40001
1.40001
1.40001
1.40001
1.40001
1.64736
4.59329
5.45699
5.38937
5.37821
5.38133
5.38972
5.40003
5.41188
5.42511
5.43798
5.44973
5.46034
5.46958
5.47604
5.47971
5.48123
5.48167
5.48206
5.4821
5.48145
5.48015
5.47895
5.47817
5.477
5.47546
5.47297
5.46973
5.46539
5.45926
5.45091
5.4395
5.42409
5.40395
5.37887
5.34913
5.31558
5.27818
5.23565
5.18467
5.12145
5.0434
4.9488
4.84229
4.76503
1.40001
1.40001
1.40001
1.40001
1.40001
1.40001
1.40001
1.40001
1.40001
1.40001
1.40001
1.40001
1.40001
1.40001
1.40001
1.40001
1.40001
1.40001
1.40001
1.40001
1.40001
1.40001
1.40001
1.40001
1.40001
1.40001
1.40001
1.40001
1.40001
1.40001
1.40001
1.40001
1.40001
1.40001
1.40001
1.40001
1.40001
1.40001
1.40001
1.40001
1.40001
1.40001
1.40001
1.40001
1.40001
1.40001
1.40001
1.40001
1.40001
1.40001
1.40001
1.41332
4.09454
5.36517
5.352
5.36923
5.3773
5.38608
5.39414
5.402
5.41139
5.42184
5.43255
5.44283
5.45213
5.45967
5.46492
5.46787
5.46888
5.46888
5.46774
5.46525
5.46143
5.45723
5.45329
5.44939
5.44492
5.44024
5.43516
5.42919
5.42143
5.41121
5.3976
5.37964
5.35636
5.32717
5.29176
5.25051
5.20299
5.14772
5.08063
4.99625
4.8823
4.70967
4.36419
3.45893
1.40001
1.40001
1.40001
1.40001
1.40001
1.40001
1.40001
1.40001
1.40001
1.40001
1.40001
1.40001
1.40001
1.40001
1.40001
1.40001
1.40001
1.40001
1.40001
1.40001
1.40001
1.40001
1.40001
1.40001
1.40001
1.40001
1.40001
1.40001
1.40001
1.40001
1.40001
1.40001
1.40001
1.40001
1.40001
1.40001
1.40001
1.40001
1.40001
1.40001
1.40001
1.40001
1.40001
1.40001
1.40001
1.40001
1.40001
1.40001
1.40001
1.40001
1.40001
1.39997
3.44606
5.18759
5.30898
5.34835
5.36881
5.37985
5.3889
5.39538
5.40148
5.40848
5.41646
5.42487
5.43326
5.44088
5.4468
5.4508
5.45291
5.45338
5.45206
5.44892
5.44369
5.43692
5.42987
5.4229
5.41524
5.40758
5.39984
5.39152
5.38175
5.36955
5.35363
5.33299
5.30648
5.27312
5.23204
5.18295
5.12486
5.05566
4.97013
4.85753
4.69878
4.44188
4.03215
3.01475
1.40001
1.40001
1.40001
1.40001
1.40001
1.40001
1.40001
1.40001
1.40001
1.40001
1.40001
1.40001
1.40001
1.40001
1.40001
1.40001
1.40001
1.40001
1.40001
1.40001
1.40001
1.40001
1.40001
1.40001
1.40001
1.40001
1.40001
1.40001
1.40001
1.40001
1.40001
1.40001
1.40001
1.40001
1.40001
1.40001
1.40001
1.40001
1.40001
1.40001
1.40001
1.40001
1.40001
1.40001
1.40001
1.40001
1.40001
1.40001
1.40001
1.40001
1.40001
1.4
2.86485
5.05447
5.29198
5.33144
5.35772
5.37185
5.37883
5.38591
5.39195
5.39741
5.40296
5.40893
5.4153
5.42168
5.42722
5.4313
5.43402
5.43505
5.43415
5.43118
5.42567
5.41749
5.4078
5.39767
5.38712
5.37591
5.36478
5.35336
5.34089
5.32633
5.30795
5.28449
5.25463
5.21711
5.1705
5.11379
5.04523
4.9622
4.85809
4.72233
4.52633
4.25732
3.71429
2.87708
1.40001
1.40001
1.40001
1.40001
1.40001
1.40001
1.40001
1.40001
1.40001
1.40001
1.40001
1.40001
1.40001
1.40001
1.40001
1.40001
1.40001
1.40001
1.40001
1.40001
1.40001
1.40001
1.40001
1.40001
1.40001
1.40001
1.40001
1.40001
1.40001
1.40001
1.40001
1.40001
1.40001
1.40001
1.40001
1.40001
1.40001
1.40001
1.40001
1.40001
1.40001
1.40001
1.40001
1.40001
1.40001
1.40001
1.40001
1.40001
1.40001
1.40001
1.40001
1.4
2.25904
4.84822
5.32755
5.33329
5.34547
5.35742
5.36766
5.3764
5.38321
5.38848
5.39258
5.39613
5.39975
5.40365
5.40757
5.41079
5.41318
5.41411
5.41344
5.41086
5.40596
5.39763
5.3864
5.37377
5.36043
5.34573
5.33067
5.31545
5.29946
5.28181
5.26076
5.23451
5.20133
5.15979
5.108
5.04437
4.96616
4.87092
4.75023
4.59632
4.3778
4.07225
3.5387
2.85455
1.40001
1.40001
1.40001
1.40001
1.40001
1.40001
1.40001
1.40001
1.40001
1.40001
1.40001
1.40001
1.40001
1.40001
1.40001
1.40001
1.40001
1.40001
1.40001
1.40001
1.40001
1.40001
1.40001
1.40001
1.40001
1.40001
1.40001
1.40001
1.40001
1.40001
1.40001
1.40001
1.40001
1.40001
1.40001
1.40001
1.40001
1.40001
1.40001
1.40001
1.40001
1.40001
1.40001
1.40001
1.40001
1.40001
1.40001
1.40001
1.40001
1.40001
1.40001
1.4
1.68407
4.61992
5.4175
5.35405
5.3384
5.34484
5.35513
5.36427
5.3718
5.37761
5.38162
5.38422
5.38607
5.38767
5.38935
5.39085
5.39198
5.39209
5.39072
5.38807
5.38385
5.37605
5.36459
5.35046
5.33456
5.31703
5.29806
5.27863
5.2585
5.23703
5.21267
5.1835
5.14704
5.10174
5.0452
4.97565
4.88944
4.784
4.65091
4.48074
4.25307
3.93138
3.45434
2.91131
1.40001
1.40001
1.40001
1.40001
1.40001
1.40001
1.40001
1.40001
1.40001
1.40001
1.40001
1.40001
1.40001
1.40001
1.40001
1.40001
1.40001
1.40001
1.40001
1.40001
1.40001
1.40001
1.40001
1.40001
1.40001
1.40001
1.40001
1.40001
1.40001
1.40001
1.40001
1.40001
1.40001
1.40001
1.40001
1.40001
1.40001
1.40001
1.40001
1.40001
1.40001
1.40001
1.40001
1.40001
1.40001
1.40001
1.40001
1.40001
1.40001
1.40001
1.40001
1.40001
1.41682
4.05032
5.30595
5.30542
5.32009
5.33188
5.34264
5.35134
5.35892
5.36511
5.36952
5.3721
5.37321
5.37336
5.373
5.37231
5.37144
5.36989
5.36688
5.36351
5.35913
5.35186
5.34112
5.32672
5.30927
5.28947
5.26725
5.24366
5.21896
5.19302
5.16455
5.13193
5.09232
5.04368
4.983
4.9086
4.8164
4.70319
4.56195
4.38185
4.14861
3.83714
3.42846
2.98066
1.40001
1.40001
1.40001
1.40001
1.40001
1.40001
1.40001
1.40001
1.40001
1.40001
1.40001
1.40001
1.40001
1.40001
1.40001
1.40001
1.40001
1.40001
1.40001
1.40001
1.40001
1.40001
1.40001
1.40001
1.40001
1.40001
1.40001
1.40001
1.40001
1.40001
1.40001
1.40001
1.40001
1.40001
1.40001
1.40001
1.40001
1.40001
1.40001
1.40001
1.40001
1.40001
1.40001