/*--------------------------------*- C++ -*----------------------------------*\
  =========                 |
  \\      /  F ield         | OpenFOAM: The Open Source CFD Toolbox
   \\    /   O peration     | Website:  https://openfoam.org
    \\  /    A nd           | Version:  7
     \\/     M anipulation  |
\*---------------------------------------------------------------------------*/
FoamFile
{
    version     2.0;
    format      ascii;
    class       volVectorField;
    location    "3.7";
    object      U;
}
// * * * * * * * * * * * * * * * * * * * * * * * * * * * * * * * * * * * * * //

dimensions      [0 1 -1 0 0 0 0];

internalField   nonuniform List<vector> 
64512
(
(3 -1.76642e-17 0)
(3 2.21726e-17 0)
(3 8.71416e-17 0)
(3 -1.41862e-16 0)
(3 -6.87025e-16 0)
(3 -7.40938e-16 0)
(3 -1.38814e-15 0)
(3 -1.38945e-15 0)
(3 -4.34689e-16 0)
(3 1.67885e-16 0)
(3 1.18278e-16 0)
(3 1.68375e-16 0)
(3 3.09643e-16 0)
(3 1.70457e-16 0)
(3 -2.81907e-16 0)
(3 -4.07171e-16 0)
(3 -8.90957e-16 0)
(3 -1.28434e-15 0)
(3 -8.90274e-16 0)
(3 -4.70167e-16 0)
(3 -5.32275e-16 0)
(3 -6.89893e-16 0)
(3 -5.43952e-16 0)
(3 -4.13119e-16 0)
(3 -6.11126e-16 0)
(3 -7.3297e-16 0)
(3 -7.15727e-16 0)
(3 -3.13777e-16 0)
(3 -8.1529e-17 0)
(3 -6.19879e-17 0)
(3 -1.05309e-15 0)
(3 -1.39013e-15 0)
(3 -1.01286e-15 0)
(3 -6.33048e-16 0)
(3 -2.96469e-16 0)
(3 -2.62485e-16 0)
(3 -5.32728e-16 0)
(3 -8.59568e-16 0)
(3 -1.15658e-15 0)
(3 -8.65447e-16 0)
(3 -2.85495e-16 0)
(3 -9.02727e-16 0)
(3 -9.66794e-16 0)
(3 -1.19155e-15 0)
(3 -9.39456e-16 0)
(3 -7.28964e-16 0)
(3 -8.182e-16 0)
(3 -5.2386e-16 0)
(2.98703 -0.000130831 0)
(1.09654 0.00464328 0)
(0.763649 0.00492264 0)
(0.744771 0.00642121 0)
(0.72896 0.00622883 0)
(0.7141 0.00595464 0)
(0.700134 0.00577592 0)
(0.68629 0.0057694 0)
(0.671995 0.00593827 0)
(0.656991 0.00620489 0)
(0.641568 0.00641364 0)
(0.626355 0.00641219 0)
(0.611894 0.0062164 0)
(0.598189 0.0060435 0)
(0.584626 0.0061125 0)
(0.57035 0.00646734 0)
(0.55486 0.00695196 0)
(0.538407 0.00727418 0)
(0.521883 0.00720508 0)
(0.506147 0.00687843 0)
(0.491267 0.00672064 0)
(0.476484 0.00699725 0)
(0.460983 0.00746065 0)
(0.44478 0.00763159 0)
(0.428515 0.00754233 0)
(0.412421 0.00755573 0)
(0.396394 0.00770084 0)
(0.380485 0.00783172 0)
(0.364751 0.00791949 0)
(0.349048 0.00799695 0)
(0.333112 0.00807277 0)
(0.3167 0.00814331 0)
(0.299691 0.00821932 0)
(0.282128 0.00831405 0)
(0.264174 0.0084189 0)
(0.246017 0.00852127 0)
(0.227773 0.00863063 0)
(0.209469 0.00876383 0)
(0.191092 0.00892496 0)
(0.172625 0.00911555 0)
(0.154037 0.00933829 0)
(0.135237 0.00959605 0)
(0.116085 0.00987685 0)
(0.096397 0.0101727 0)
(0.0760312 0.0104484 0)
(0.0548911 0.010691 0)
(0.0331559 0.0107733 0)
(0.0111908 0.010841 0)
(3 1.98044e-17 0)
(3 5.24668e-16 0)
(3 4.91817e-16 0)
(3 1.76957e-16 0)
(3 -1.68189e-16 0)
(3 -1.88763e-16 0)
(3 -4.57654e-16 0)
(3 -8.04003e-16 0)
(3 -4.86938e-17 0)
(3 2.04193e-16 0)
(3 -1.06954e-16 0)
(3 -1.40268e-16 0)
(3 -2.26632e-16 0)
(3 -1.1632e-16 0)
(3 -7.13721e-16 0)
(3 -6.7735e-16 0)
(3 -7.6524e-16 0)
(3 -1.29276e-15 0)
(3 -1.22872e-15 0)
(3 -7.89001e-16 0)
(3 -9.61934e-16 0)
(3 -1.21485e-15 0)
(3 -1.45462e-15 0)
(3 -1.63357e-15 0)
(3 -1.4655e-15 0)
(3 -1.42362e-15 0)
(3 -1.6571e-15 0)
(3 -3.395e-16 0)
(3 1.52183e-15 0)
(3 1.21689e-15 0)
(3 -1.33862e-17 0)
(3 -1.52524e-15 0)
(3 -1.78611e-15 0)
(3 -1.42728e-15 0)
(3 -1.32828e-15 0)
(3 -1.47017e-15 0)
(3 -1.85069e-15 0)
(3 -2.50461e-15 0)
(3 -2.3526e-15 0)
(3 -1.79314e-15 0)
(3 -1.02128e-15 0)
(3 -1.44917e-15 0)
(3 -2.0837e-15 0)
(3 -2.24491e-15 0)
(3 -1.30542e-15 0)
(3 -3.97353e-16 0)
(3 -3.89836e-16 0)
(3 1.75109e-16 0)
(2.99296 0.00144144 0)
(1.09936 0.0199045 0)
(0.760848 0.0181895 0)
(0.741184 0.0180955 0)
(0.726308 0.0176333 0)
(0.712266 0.0172652 0)
(0.698878 0.0172305 0)
(0.685257 0.0175817 0)
(0.670877 0.0182915 0)
(0.655597 0.0191212 0)
(0.639826 0.019645 0)
(0.624283 0.0194734 0)
(0.609547 0.0186923 0)
(0.595614 0.0179753 0)
(0.581878 0.018023 0)
(0.567534 0.0190144 0)
(0.552072 0.0204754 0)
(0.535667 0.0215118 0)
(0.519152 0.0213998 0)
(0.503377 0.0204683 0)
(0.488391 0.0199643 0)
(0.473536 0.0207189 0)
(0.458046 0.0220694 0)
(0.44185 0.0225855 0)
(0.425579 0.022365 0)
(0.409442 0.0224567 0)
(0.393366 0.0229427 0)
(0.377413 0.0233701 0)
(0.361651 0.0236504 0)
(0.345932 0.0238841 0)
(0.329992 0.024102 0)
(0.313589 0.0243013 0)
(0.29661 0.0245249 0)
(0.279099 0.024819 0)
(0.261215 0.0251544 0)
(0.243149 0.0254851 0)
(0.225028 0.0258333 0)
(0.206896 0.026246 0)
(0.18875 0.0267346 0)
(0.170576 0.0273084 0)
(0.152324 0.0279839 0)
(0.133885 0.0287781 0)
(0.115093 0.0296568 0)
(0.095742 0.0305973 0)
(0.0756662 0.0314906 0)
(0.0547532 0.0322867 0)
(0.0331576 0.0326055 0)
(0.0112374 0.0329075 0)
(3 -1.13618e-16 0)
(3 -1.55129e-16 0)
(3 -1.83244e-16 0)
(3 -2.01447e-16 0)
(3 -9.99163e-17 0)
(3 -1.65254e-16 0)
(3 1.13497e-16 0)
(3 1.78858e-16 0)
(3 7.7867e-16 0)
(3 9.0486e-16 0)
(3 3.6445e-16 0)
(3 1.01484e-17 0)
(3 -5.28152e-16 0)
(3 -5.8778e-16 0)
(3 -2.31903e-16 0)
(3 -4.9316e-16 0)
(3 -4.09883e-16 0)
(3 -8.66399e-16 0)
(3 -8.14622e-16 0)
(3 -1.2489e-15 0)
(3 -1.52138e-15 0)
(3 -1.76956e-15 0)
(3 -2.06555e-15 0)
(3 -2.18495e-15 0)
(3 -2.24753e-15 0)
(3 -1.97172e-15 0)
(3 -2.29052e-15 0)
(3 -1.54104e-15 0)
(3 7.66481e-16 0)
(3 1.50481e-15 0)
(3 1.26633e-15 0)
(3 -1.02041e-16 0)
(3 -1.30633e-15 0)
(3 -1.62982e-15 0)
(3 -1.34428e-15 0)
(3 -1.14065e-15 0)
(3 -1.6503e-15 0)
(3 -1.51775e-15 0)
(3 -8.58934e-16 0)
(3 -1.04098e-15 0)
(3 -1.82553e-15 0)
(3 -1.63409e-15 0)
(3 -1.51343e-15 0)
(3 -7.59476e-16 0)
(3 -2.97064e-16 0)
(3 1.03353e-15 0)
(3 1.03958e-15 0)
(3 1.36104e-15 0)
(2.99947 0.000586798 0)
(1.11398 0.0342058 0)
(0.763702 0.0309847 0)
(0.743537 0.0302938 0)
(0.728626 0.0290833 0)
(0.714559 0.0283197 0)
(0.701205 0.0283632 0)
(0.687566 0.0292423 0)
(0.673056 0.0307471 0)
(0.657503 0.0323787 0)
(0.641329 0.0333963 0)
(0.625299 0.0331891 0)
(0.610049 0.0319094 0)
(0.595597 0.0306468 0)
(0.581387 0.0305575 0)
(0.566736 0.031994 0)
(0.551156 0.0342493 0)
(0.534705 0.0359067 0)
(0.518125 0.0357922 0)
(0.502255 0.0343666 0)
(0.487079 0.0335791 0)
(0.472073 0.0347809 0)
(0.456542 0.0369384 0)
(0.440285 0.0377597 0)
(0.423935 0.0373889 0)
(0.407662 0.0375297 0)
(0.391429 0.0383192 0)
(0.375303 0.0390188 0)
(0.359365 0.0394859 0)
(0.343477 0.0398831 0)
(0.327375 0.0402508 0)
(0.310818 0.0405746 0)
(0.293692 0.0409219 0)
(0.27604 0.0413713 0)
(0.258016 0.0418774 0)
(0.239818 0.0423659 0)
(0.221595 0.0428779 0)
(0.203422 0.043496 0)
(0.185328 0.0442416 0)
(0.167315 0.0451326 0)
(0.149339 0.0461995 0)
(0.131271 0.0474761 0)
(0.112913 0.0489112 0)
(0.0940293 0.0504852 0)
(0.074414 0.0520281 0)
(0.0539401 0.0534522 0)
(0.0327246 0.0541128 0)
(0.0111357 0.054777 0)
(3 -8.47192e-17 0)
(3 -6.9206e-16 0)
(3 -3.59873e-16 0)
(3 -1.58377e-16 0)
(3 -3.23508e-17 0)
(3 -5.5478e-16 0)
(3 -1.00103e-15 0)
(3 -6.35777e-16 0)
(3 -1.93352e-16 0)
(3 7.76999e-17 0)
(3 -3.16971e-16 0)
(3 -5.16407e-16 0)
(3 -7.31721e-16 0)
(3 -6.76946e-16 0)
(3 -4.30093e-16 0)
(3 -7.20418e-16 0)
(3 -1.3908e-15 0)
(3 -1.59314e-15 0)
(3 -1.28103e-15 0)
(3 -1.11758e-15 0)
(3 -1.64746e-15 0)
(3 -2.19202e-15 0)
(3 -1.75492e-15 0)
(3 -1.04447e-15 0)
(3 -8.83578e-16 0)
(3 -1.06954e-15 0)
(3 -5.29533e-16 0)
(3 -2.42667e-16 0)
(3 1.62669e-16 0)
(3 7.33682e-17 0)
(3 -7.46874e-16 0)
(3 -4.85669e-16 0)
(3 -6.57902e-16 0)
(3 -7.7294e-16 0)
(3 -3.00436e-16 0)
(3 3.14992e-17 0)
(3 -3.04616e-16 0)
(3 2.87766e-17 0)
(3 8.08128e-16 0)
(3 1.32722e-15 0)
(3 1.45012e-15 0)
(3 1.21305e-15 0)
(3 1.0724e-15 0)
(3 1.15782e-15 0)
(3 7.50827e-16 0)
(3 3.66479e-16 0)
(3 2.10623e-15 0)
(3 2.2325e-15 0)
(3 6.38768e-06 0)
(1.13485 0.0474193 0)
(0.76546 0.0429765 0)
(0.744997 0.0421723 0)
(0.729959 0.0406174 0)
(0.715328 0.0396414 0)
(0.701352 0.0398482 0)
(0.687203 0.0412456 0)
(0.672413 0.0434789 0)
(0.656873 0.0458279 0)
(0.640951 0.0472799 0)
(0.62528 0.0470543 0)
(0.610378 0.0453372 0)
(0.596171 0.0435329 0)
(0.582097 0.043232 0)
(0.567603 0.0449773 0)
(0.552254 0.0478995 0)
(0.535991 0.0501457 0)
(0.519468 0.0501272 0)
(0.503552 0.0483465 0)
(0.488198 0.0473469 0)
(0.473054 0.0489656 0)
(0.457517 0.0518691 0)
(0.44121 0.0530119 0)
(0.424773 0.0525368 0)
(0.408336 0.0527541 0)
(0.391914 0.0538631 0)
(0.375563 0.054864 0)
(0.359377 0.0555611 0)
(0.343233 0.0561712 0)
(0.326875 0.056735 0)
(0.31006 0.0572182 0)
(0.292677 0.0577093 0)
(0.274757 0.0583212 0)
(0.256446 0.0589931 0)
(0.237939 0.0596188 0)
(0.219405 0.0602519 0)
(0.200953 0.0610056 0)
(0.182648 0.0619087 0)
(0.164522 0.0629908 0)
(0.146548 0.064305 0)
(0.128601 0.0659197 0)
(0.110479 0.0677847 0)
(0.091936 0.0699111 0)
(0.0727435 0.0720813 0)
(0.0527612 0.0741684 0)
(0.0320356 0.0752508 0)
(0.0109395 0.0763825 0)
(3 1.22515e-16 0)
(3 4.53693e-16 0)
(3 6.55892e-16 0)
(3 7.47774e-16 0)
(3 9.59335e-16 0)
(3 1.03031e-15 0)
(3 7.56041e-16 0)
(3 7.47121e-17 0)
(3 -7.12898e-16 0)
(3 -8.96911e-16 0)
(3 -5.71682e-16 0)
(3 -4.04958e-16 0)
(3 1.94912e-16 0)
(3 3.47262e-16 0)
(3 -9.72067e-17 0)
(3 -3.42922e-16 0)
(3 -9.61997e-16 0)
(3 -1.79579e-15 0)
(3 -2.00723e-15 0)
(3 -1.79554e-15 0)
(3 -1.64758e-15 0)
(3 -1.8063e-15 0)
(3 -1.02336e-15 0)
(3 -6.46693e-16 0)
(3 -4.64813e-16 0)
(3 1.13464e-16 0)
(3 3.94278e-16 0)
(3 1.73193e-16 0)
(3 9.38923e-17 0)
(3 -2.95826e-16 0)
(3 -1.11755e-15 0)
(3 -1.34735e-15 0)
(3 -2.02851e-15 0)
(3 -1.69477e-15 0)
(3 -1.01161e-15 0)
(3 1.97809e-16 0)
(3 1.3589e-15 0)
(3 1.27798e-15 0)
(3 6.38161e-16 0)
(3 3.58144e-16 0)
(3 8.45048e-16 0)
(3 1.12004e-15 0)
(3 1.24173e-15 0)
(3 1.10734e-15 0)
(3 8.56762e-16 0)
(3 1.04833e-15 0)
(3 3.28325e-15 0)
(3 2.90981e-15 0)
(3 2.81716e-08 0)
(1.16351 0.0609739 0)
(0.767351 0.0545407 0)
(0.745332 0.05449 0)
(0.7298 0.052746 0)
(0.714688 0.0514644 0)
(0.700555 0.0515861 0)
(0.686589 0.0532558 0)
(0.672245 0.0559976 0)
(0.65727 0.0588933 0)
(0.641854 0.0607314 0)
(0.626478 0.0606172 0)
(0.611621 0.0586838 0)
(0.597276 0.0564868 0)
(0.582989 0.0559705 0)
(0.568386 0.0579208 0)
(0.553125 0.0614049 0)
(0.537005 0.0642212 0)
(0.520537 0.0644126 0)
(0.504616 0.0624073 0)
(0.489175 0.0612168 0)
(0.474026 0.0631696 0)
(0.458664 0.0667323 0)
(0.442492 0.0682133 0)
(0.426141 0.0676822 0)
(0.409713 0.0679885 0)
(0.393267 0.0694139 0)
(0.37684 0.0707305 0)
(0.360532 0.0716926 0)
(0.344242 0.0725653 0)
(0.327725 0.0733802 0)
(0.310747 0.0740734 0)
(0.293193 0.074749 0)
(0.275083 0.075556 0)
(0.256542 0.0764226 0)
(0.23776 0.0772104 0)
(0.218919 0.0779815 0)
(0.20015 0.0788729 0)
(0.181544 0.0799107 0)
(0.163157 0.0811245 0)
(0.144979 0.0825812 0)
(0.126905 0.0843887 0)
(0.108749 0.0865116 0)
(0.0902978 0.0890305 0)
(0.0713295 0.0917142 0)
(0.0517078 0.0944178 0)
(0.031388 0.0959422 0)
(0.0107468 0.0975873 0)
(3 -1.3619e-17 0)
(3 3.39091e-16 0)
(3 5.21251e-16 0)
(3 5.48188e-16 0)
(3 5.31485e-16 0)
(3 6.51408e-16 0)
(3 5.68522e-16 0)
(3 7.67313e-16 0)
(3 -1.43658e-16 0)
(3 -2.34688e-16 0)
(3 -2.03769e-16 0)
(3 -3.16296e-16 0)
(3 -2.9595e-16 0)
(3 -4.28519e-16 0)
(3 -8.18314e-16 0)
(3 -1.1442e-15 0)
(3 -1.13428e-15 0)
(3 -1.37245e-15 0)
(3 -1.74957e-15 0)
(3 -2.38247e-15 0)
(3 -1.93509e-15 0)
(3 -1.09312e-15 0)
(3 -1.12056e-15 0)
(3 -1.06699e-15 0)
(3 -9.3687e-16 0)
(3 -7.88175e-16 0)
(3 -4.00199e-16 0)
(3 -7.95254e-16 0)
(3 -1.07125e-15 0)
(3 -7.53239e-16 0)
(3 -3.82123e-16 0)
(3 -2.87569e-16 0)
(3 -1.32789e-15 0)
(3 -1.32129e-15 0)
(3 -1.62393e-15 0)
(3 -9.00098e-16 0)
(3 7.25201e-16 0)
(3 1.88135e-15 0)
(3 1.28468e-15 0)
(3 -1.0572e-16 0)
(3 -1.55733e-16 0)
(3 -1.03661e-16 0)
(3 3.73381e-16 0)
(3 3.13588e-16 0)
(3 4.72489e-16 0)
(3 8.40547e-16 0)
(3 1.73055e-15 0)
(3 1.45537e-15 0)
(3 -1.49356e-13 0)
(1.20209 0.0747355 0)
(0.770473 0.0657746 0)
(0.746558 0.0675162 0)
(0.730478 0.0653612 0)
(0.714828 0.0635674 0)
(0.700358 0.0633215 0)
(0.686302 0.0650327 0)
(0.672073 0.0681604 0)
(0.657288 0.0716174 0)
(0.641989 0.0739985 0)
(0.626572 0.0742356 0)
(0.611572 0.0722872 0)
(0.597116 0.0697506 0)
(0.582794 0.0689121 0)
(0.568319 0.0708838 0)
(0.553402 0.0747694 0)
(0.537653 0.0781112 0)
(0.521384 0.0786151 0)
(0.505524 0.0764998 0)
(0.490031 0.0751231 0)
(0.474875 0.0773145 0)
(0.459698 0.0814537 0)
(0.44367 0.0833177 0)
(0.427421 0.0828092 0)
(0.411041 0.0832278 0)
(0.394636 0.0849607 0)
(0.378211 0.0865936 0)
(0.361868 0.0878381 0)
(0.345526 0.089007 0)
(0.328955 0.0901186 0)
(0.311923 0.0910692 0)
(0.294312 0.0919702 0)
(0.276125 0.093007 0)
(0.257467 0.0941007 0)
(0.238514 0.0950814 0)
(0.219457 0.096016 0)
(0.200445 0.0970624 0)
(0.181581 0.0982384 0)
(0.162935 0.0995654 0)
(0.14451 0.101113 0)
(0.126216 0.103025 0)
(0.107898 0.10528 0)
(0.0893884 0.108053 0)
(0.0704876 0.111128 0)
(0.0510719 0.114378 0)
(0.0309918 0.116335 0)
(0.0106419 0.118506 0)
(3 -1.9949e-17 0)
(3 -4.03281e-16 0)
(3 -1.55969e-17 0)
(3 2.24121e-16 0)
(3 1.97283e-16 0)
(3 -4.34481e-16 0)
(3 -7.07329e-16 0)
(3 -5.14014e-16 0)
(3 -7.02167e-16 0)
(3 -4.62862e-16 0)
(3 -6.48399e-16 0)
(3 -9.65477e-16 0)
(3 -1.99106e-15 0)
(3 -2.03005e-15 0)
(3 -1.84018e-15 0)
(3 -1.30418e-15 0)
(3 -9.65181e-16 0)
(3 -8.33318e-16 0)
(3 -1.16296e-15 0)
(3 -1.22404e-15 0)
(3 -9.28934e-16 0)
(3 -6.29026e-16 0)
(3 -6.92341e-16 0)
(3 -8.56419e-16 0)
(3 -1.43888e-15 0)
(3 -1.70285e-15 0)
(3 -1.88671e-15 0)
(3 -1.76341e-15 0)
(3 -2.2166e-15 0)
(3 -1.74509e-15 0)
(3 -1.41879e-15 0)
(3 -4.0834e-16 0)
(3 3.47361e-16 0)
(3 3.16202e-16 0)
(3 -4.09777e-16 0)
(3 -4.11969e-16 0)
(3 2.27759e-16 0)
(3 4.94177e-16 0)
(3 9.49499e-16 0)
(3 7.87065e-16 0)
(3 1.72313e-16 0)
(3 7.57946e-17 0)
(3 4.6247e-16 0)
(3 6.80413e-16 0)
(3 5.61307e-16 0)
(3 1.74311e-16 0)
(3 2.67359e-16 0)
(3 5.25545e-16 0)
(3 -8.10776e-12 0)
(1.25229 0.088293 0)
(0.774841 0.0764098 0)
(0.748448 0.0813098 0)
(0.731608 0.0784783 0)
(0.71526 0.0760527 0)
(0.700282 0.0752456 0)
(0.685953 0.0768056 0)
(0.671723 0.0802037 0)
(0.657098 0.0841933 0)
(0.641981 0.0871615 0)
(0.62667 0.0878247 0)
(0.611703 0.0859287 0)
(0.597274 0.083048 0)
(0.582957 0.0818192 0)
(0.568526 0.0836989 0)
(0.553805 0.0878993 0)
(0.538287 0.091793 0)
(0.52209 0.0927442 0)
(0.506203 0.0906342 0)
(0.490649 0.0890531 0)
(0.475511 0.0913658 0)
(0.460586 0.0959894 0)
(0.444786 0.0982806 0)
(0.4287 0.09788 0)
(0.412421 0.0984368 0)
(0.396099 0.100463 0)
(0.379711 0.102402 0)
(0.363361 0.103931 0)
(0.347 0.105414 0)
(0.330416 0.10686 0)
(0.313379 0.108117 0)
(0.295766 0.109294 0)
(0.277563 0.11061 0)
(0.258847 0.111984 0)
(0.239774 0.113211 0)
(0.220537 0.114357 0)
(0.20129 0.115595 0)
(0.182142 0.116929 0)
(0.16317 0.118364 0)
(0.144393 0.119961 0)
(0.125756 0.1219 0)
(0.107153 0.124171 0)
(0.0884863 0.127068 0)
(0.0695942 0.130412 0)
(0.0503702 0.134137 0)
(0.0305387 0.136508 0)
(0.0105102 0.139204 0)
(3 6.74988e-17 0)
(3 8.46189e-17 0)
(3 -1.84249e-16 0)
(3 -2.23933e-16 0)
(3 -5.56986e-16 0)
(3 -8.89473e-16 0)
(3 -7.46654e-16 0)
(3 -1.1449e-15 0)
(3 -7.93607e-16 0)
(3 -3.58433e-17 0)
(3 2.05332e-16 0)
(3 -3.05891e-16 0)
(3 -1.29996e-15 0)
(3 -1.92484e-15 0)
(3 -1.66445e-15 0)
(3 -1.30994e-15 0)
(3 -6.18008e-16 0)
(3 -6.71395e-16 0)
(3 -1.21342e-15 0)
(3 1.11014e-16 0)
(3 4.96334e-16 0)
(3 1.55689e-16 0)
(3 -1.08348e-16 0)
(3 -1.02617e-15 0)
(3 -1.12708e-15 0)
(3 -8.5635e-16 0)
(3 -1.12155e-15 0)
(3 -1.56088e-15 0)
(3 -2.67902e-15 0)
(3 -3.32202e-15 0)
(3 -3.59663e-15 0)
(3 -3.53035e-15 0)
(3 -2.78428e-15 0)
(3 -1.67042e-15 0)
(3 -1.31711e-15 0)
(3 -1.41993e-15 0)
(3 -1.20467e-15 0)
(3 -1.33317e-15 0)
(3 -1.03786e-15 0)
(3 -6.08722e-16 0)
(3 -1.19516e-15 0)
(3 -8.05465e-16 0)
(3 -4.29486e-16 0)
(3 8.52412e-17 0)
(3 -5.24291e-17 0)
(3 -5.79561e-16 0)
(3 -6.3964e-16 0)
(3 -4.03783e-16 0)
(3 -2.10534e-12 0)
(1.31577 0.101577 0)
(0.779888 0.0870895 0)
(0.750468 0.0958868 0)
(0.732892 0.0921465 0)
(0.715826 0.0889748 0)
(0.700305 0.0873956 0)
(0.685628 0.0885831 0)
(0.671354 0.0920877 0)
(0.656898 0.0965333 0)
(0.642001 0.100097 0)
(0.626838 0.101258 0)
(0.611914 0.0995399 0)
(0.597508 0.0963943 0)
(0.5832 0.0947735 0)
(0.568796 0.096505 0)
(0.554219 0.100955 0)
(0.538899 0.105406 0)
(0.522748 0.106887 0)
(0.506802 0.104849 0)
(0.491188 0.102997 0)
(0.47605 0.105276 0)
(0.461387 0.110276 0)
(0.44585 0.113038 0)
(0.429953 0.112844 0)
(0.413817 0.113579 0)
(0.397621 0.115894 0)
(0.38132 0.118128 0)
(0.365023 0.119932 0)
(0.348713 0.121729 0)
(0.332196 0.123529 0)
(0.315238 0.12513 0)
(0.297708 0.126632 0)
(0.279575 0.128283 0)
(0.260883 0.130003 0)
(0.241769 0.131554 0)
(0.222413 0.132992 0)
(0.202968 0.134497 0)
(0.183534 0.136048 0)
(0.164185 0.137622 0)
(0.144953 0.139261 0)
(0.12583 0.141173 0)
(0.106779 0.143352 0)
(0.0877922 0.146223 0)
(0.0687717 0.149663 0)
(0.0496523 0.153727 0)
(0.0300362 0.156428 0)
(0.0103389 0.159588 0)
(3 1.41322e-16 0)
(3 3.25616e-17 0)
(3 -6.23228e-16 0)
(3 -1.38559e-15 0)
(3 -1.86813e-15 0)
(3 -1.32178e-15 0)
(3 -7.77296e-16 0)
(3 -5.18325e-16 0)
(3 1.511e-16 0)
(3 4.48027e-16 0)
(3 3.66118e-16 0)
(3 -5.6458e-16 0)
(3 -9.44368e-16 0)
(3 -1.138e-15 0)
(3 -1.13607e-15 0)
(3 -1.40334e-15 0)
(3 -6.46919e-16 0)
(3 -2.67332e-16 0)
(3 8.54099e-17 0)
(3 5.02165e-16 0)
(3 4.37904e-16 0)
(3 -1.35286e-16 0)
(3 -6.76661e-16 0)
(3 -6.87438e-16 0)
(3 -8.36579e-16 0)
(3 -5.58231e-16 0)
(3 -4.97779e-16 0)
(3 -7.35213e-16 0)
(3 -2.06857e-15 0)
(3 -2.68855e-15 0)
(3 -3.49175e-15 0)
(3 -3.18978e-15 0)
(3 -2.46976e-15 0)
(3 -2.14495e-15 0)
(3 -1.84442e-15 0)
(3 -2.66059e-15 0)
(3 -2.85015e-15 0)
(3 -1.66087e-15 0)
(3 -1.05915e-15 0)
(3 -3.48775e-16 0)
(3 1.09965e-16 0)
(3 6.12227e-16 0)
(3 1.36717e-16 0)
(3 -4.31952e-16 0)
(3 -7.61354e-16 0)
(3 -1.37207e-15 0)
(3 -1.78363e-15 0)
(3 -1.38335e-15 0)
(3 -3.17259e-13 0)
(1.39471 0.114672 0)
(0.785489 0.0981214 0)
(0.752391 0.110945 0)
(0.734291 0.106395 0)
(0.716548 0.102385 0)
(0.700468 0.0998656 0)
(0.685337 0.100416 0)
(0.670912 0.103811 0)
(0.656596 0.108606 0)
(0.64195 0.112761 0)
(0.627 0.114487 0)
(0.612183 0.113075 0)
(0.597867 0.109753 0)
(0.583655 0.107723 0)
(0.569355 0.109265 0)
(0.554956 0.113928 0)
(0.539852 0.118965 0)
(0.523741 0.121079 0)
(0.50768 0.119211 0)
(0.491949 0.117052 0)
(0.476699 0.119137 0)
(0.46218 0.124388 0)
(0.44683 0.127634 0)
(0.431045 0.127722 0)
(0.414991 0.128666 0)
(0.398866 0.131261 0)
(0.382604 0.133778 0)
(0.36632 0.135839 0)
(0.35004 0.137935 0)
(0.333596 0.140087 0)
(0.316757 0.142053 0)
(0.299387 0.143907 0)
(0.281439 0.145932 0)
(0.262931 0.148051 0)
(0.243962 0.149995 0)
(0.224693 0.151804 0)
(0.205253 0.153655 0)
(0.185713 0.1555 0)
(0.166123 0.157281 0)
(0.14652 0.159005 0)
(0.126935 0.160903 0)
(0.107399 0.162952 0)
(0.0879881 0.165703 0)
(0.0686739 0.169079 0)
(0.0494515 0.17332 0)
(0.0298361 0.176217 0)
(0.0102562 0.179726 0)
(3 2.36461e-17 0)
(3 5.10048e-17 0)
(3 2.97559e-17 0)
(3 -4.55697e-16 0)
(3 -8.36837e-16 0)
(3 -7.0865e-16 0)
(3 -7.81312e-16 0)
(3 -5.49263e-16 0)
(3 -4.75251e-16 0)
(3 -7.30861e-16 0)
(3 -7.89706e-16 0)
(3 -7.1875e-16 0)
(3 5.22028e-16 0)
(3 5.04558e-16 0)
(3 1.12796e-16 0)
(3 1.62867e-16 0)
(3 -3.33798e-16 0)
(3 9.90484e-17 0)
(3 6.85095e-16 0)
(3 2.15721e-16 0)
(3 -4.96761e-16 0)
(3 -3.22335e-16 0)
(3 -3.07893e-16 0)
(3 5.0833e-16 0)
(3 1.53229e-16 0)
(3 -1.72878e-16 0)
(3 1.39614e-16 0)
(3 8.24907e-17 0)
(3 -3.11223e-16 0)
(3 -9.60953e-16 0)
(3 -1.37532e-15 0)
(3 -7.28795e-16 0)
(3 -5.10041e-16 0)
(3 -7.86264e-16 0)
(3 -1.2828e-15 0)
(3 -1.68435e-15 0)
(3 -1.92513e-15 0)
(3 -7.09386e-16 0)
(3 -4.75554e-16 0)
(3 1.27553e-16 0)
(3 1.25435e-15 0)
(3 1.34143e-15 0)
(3 1.071e-15 0)
(3 -3.25974e-17 0)
(3 -1.27917e-15 0)
(3 -1.69599e-15 0)
(3 -1.5929e-15 0)
(3 -7.64758e-16 0)
(3 -1.09117e-14 0)
(1.49171 0.127784 0)
(0.791845 0.109976 0)
(0.753653 0.126149 0)
(0.735432 0.121037 0)
(0.717318 0.116252 0)
(0.700889 0.112714 0)
(0.685306 0.112458 0)
(0.670561 0.115487 0)
(0.656236 0.120458 0)
(0.641765 0.125156 0)
(0.626986 0.127491 0)
(0.612237 0.126505 0)
(0.597965 0.123109 0)
(0.58385 0.120612 0)
(0.569733 0.121878 0)
(0.555699 0.126717 0)
(0.541073 0.132369 0)
(0.525266 0.135219 0)
(0.509286 0.133668 0)
(0.493585 0.131229 0)
(0.478274 0.133009 0)
(0.46386 0.138393 0)
(0.448658 0.142124 0)
(0.432912 0.142564 0)
(0.416863 0.143754 0)
(0.400709 0.146642 0)
(0.384364 0.149453 0)
(0.367946 0.151771 0)
(0.351529 0.154151 0)
(0.334981 0.156642 0)
(0.318087 0.158962 0)
(0.300715 0.161165 0)
(0.282827 0.163563 0)
(0.264424 0.1661 0)
(0.245582 0.168479 0)
(0.226441 0.170713 0)
(0.207101 0.172973 0)
(0.187591 0.175177 0)
(0.167925 0.177229 0)
(0.148127 0.179099 0)
(0.128254 0.181031 0)
(0.108379 0.182968 0)
(0.0886354 0.185571 0)
(0.0690323 0.188787 0)
(0.049623 0.193084 0)
(0.0298777 0.196062 0)
(0.0102541 0.199819 0)
(3 -7.98025e-17 0)
(3 -2.66197e-16 0)
(3 4.29712e-16 0)
(3 8.25987e-16 0)
(3 3.09946e-16 0)
(3 -5.24717e-16 0)
(3 -1.30037e-15 0)
(3 -1.25777e-15 0)
(3 -1.54963e-15 0)
(3 -1.50025e-15 0)
(3 -1.02673e-15 0)
(3 3.35466e-16 0)
(3 9.04015e-16 0)
(3 1.02536e-15 0)
(3 5.58206e-16 0)
(3 1.01723e-15 0)
(3 3.39111e-16 0)
(3 7.56086e-16 0)
(3 5.07562e-16 0)
(3 5.02828e-16 0)
(3 -1.66658e-16 0)
(3 -3.61621e-16 0)
(3 -4.3077e-16 0)
(3 -2.21218e-16 0)
(3 4.12862e-16 0)
(3 5.91248e-16 0)
(3 6.44106e-16 0)
(3 9.10484e-18 0)
(3 1.05057e-16 0)
(3 -9.08798e-17 0)
(3 2.0274e-16 0)
(3 2.43521e-16 0)
(3 4.56333e-16 0)
(3 -3.73463e-16 0)
(3 -1.34933e-15 0)
(3 -1.66316e-15 0)
(3 -1.33412e-15 0)
(3 -1.17205e-15 0)
(3 -1.28534e-15 0)
(3 -8.58494e-16 0)
(3 2.55757e-16 0)
(3 1.60926e-16 0)
(3 2.17758e-16 0)
(3 -3.50816e-16 0)
(3 -1.47855e-15 0)
(3 -2.02756e-15 0)
(3 -2.06769e-15 0)
(3 -1.60931e-15 0)
(3 -7.33731e-15 0)
(1.61057 0.141197 0)
(0.800544 0.123313 0)
(0.754046 0.141416 0)
(0.735849 0.135765 0)
(0.717799 0.130171 0)
(0.701524 0.125733 0)
(0.685868 0.124749 0)
(0.670868 0.127313 0)
(0.656363 0.1323 0)
(0.641841 0.13745 0)
(0.627011 0.140404 0)
(0.612104 0.139933 0)
(0.597599 0.136583 0)
(0.583313 0.133529 0)
(0.569104 0.134285 0)
(0.555263 0.139155 0)
(0.541125 0.145421 0)
(0.525742 0.14911 0)
(0.509979 0.148047 0)
(0.494505 0.145406 0)
(0.479351 0.146808 0)
(0.46527 0.152223 0)
(0.450483 0.156427 0)
(0.435047 0.157265 0)
(0.41928 0.158732 0)
(0.403358 0.161938 0)
(0.38714 0.165085 0)
(0.370731 0.167705 0)
(0.354252 0.170398 0)
(0.33762 0.173244 0)
(0.320641 0.175932 0)
(0.303202 0.178484 0)
(0.28528 0.181242 0)
(0.26688 0.184183 0)
(0.248066 0.186988 0)
(0.228968 0.189647 0)
(0.209671 0.192323 0)
(0.190168 0.194908 0)
(0.17044 0.197272 0)
(0.150496 0.199351 0)
(0.130403 0.2014 0)
(0.110241 0.203306 0)
(0.0901716 0.205813 0)
(0.0702016 0.208856 0)
(0.0504334 0.213159 0)
(0.0303319 0.216156 0)
(0.0104014 0.220104 0)
(3 -8.39528e-17 0)
(3 -2.27e-16 0)
(3 -8.34422e-17 0)
(3 -1.36321e-16 0)
(3 -2.67934e-16 0)
(3 -8.93639e-16 0)
(3 -6.25618e-16 0)
(3 -1.13761e-15 0)
(3 -6.93664e-16 0)
(3 -5.74187e-16 0)
(3 -2.46409e-16 0)
(3 -6.3376e-17 0)
(3 4.13593e-16 0)
(3 8.4217e-16 0)
(3 1.21897e-15 0)
(3 4.70839e-16 0)
(3 4.65214e-16 0)
(3 5.2075e-16 0)
(3 4.26544e-16 0)
(3 2.96959e-16 0)
(3 4.17191e-16 0)
(3 1.36214e-16 0)
(3 5.03718e-17 0)
(3 -3.22242e-16 0)
(3 2.5513e-16 0)
(3 1.03911e-15 0)
(3 1.0059e-16 0)
(3 -3.10794e-16 0)
(3 4.29573e-16 0)
(3 7.28793e-16 0)
(3 7.80356e-16 0)
(3 5.95919e-16 0)
(3 -4.07625e-16 0)
(3 -7.31816e-16 0)
(3 -8.88307e-16 0)
(3 -8.99462e-16 0)
(3 -1.62902e-15 0)
(3 -2.3885e-15 0)
(3 -2.69131e-15 0)
(3 -2.75572e-15 0)
(3 -2.31098e-15 0)
(3 -1.82108e-15 0)
(3 -9.8602e-16 0)
(3 -5.42688e-16 0)
(3 -7.31401e-16 0)
(3 -1.15104e-15 0)
(3 -1.56422e-15 0)
(3 -1.23175e-15 0)
(3 -2.37491e-15 0)
(1.75568 0.153253 0)
(0.813505 0.138475 0)
(0.754674 0.157557 0)
(0.736794 0.150514 0)
(0.718949 0.143992 0)
(0.703159 0.138664 0)
(0.68775 0.137155 0)
(0.672712 0.139432 0)
(0.657972 0.144459 0)
(0.6432 0.15003 0)
(0.62813 0.153593 0)
(0.612932 0.153697 0)
(0.598045 0.150546 0)
(0.583433 0.146936 0)
(0.568913 0.146919 0)
(0.554993 0.151546 0)
(0.541157 0.158291 0)
(0.526075 0.16283 0)
(0.510353 0.162373 0)
(0.494908 0.159588 0)
(0.47969 0.160519 0)
(0.46566 0.16585 0)
(0.45109 0.170495 0)
(0.435829 0.171751 0)
(0.420319 0.173502 0)
(0.404724 0.177056 0)
(0.388824 0.180603 0)
(0.372667 0.183586 0)
(0.356392 0.186638 0)
(0.339938 0.189879 0)
(0.323111 0.192977 0)
(0.305796 0.195915 0)
(0.287976 0.199058 0)
(0.269648 0.202418 0)
(0.250867 0.205659 0)
(0.231764 0.208741 0)
(0.212431 0.211823 0)
(0.192854 0.214781 0)
(0.173011 0.217469 0)
(0.152912 0.219799 0)
(0.132632 0.222037 0)
(0.112238 0.223999 0)
(0.091892 0.226486 0)
(0.0715697 0.229383 0)
(0.051408 0.233686 0)
(0.0308992 0.236686 0)
(0.010597 0.240807 0)
(3 -1.13844e-16 0)
(3 -1.29801e-16 0)
(3 -7.44543e-17 0)
(3 -6.20226e-16 0)
(3 -5.15631e-16 0)
(3 -3.44329e-16 0)
(3 2.39551e-16 0)
(3 6.42705e-17 0)
(3 -2.8403e-17 0)
(3 -2.99831e-16 0)
(3 -6.05649e-16 0)
(3 1.23417e-16 0)
(3 5.26103e-16 0)
(3 6.07534e-16 0)
(3 5.73465e-16 0)
(3 -1.26846e-16 0)
(3 3.16164e-16 0)
(3 5.29346e-16 0)
(3 6.23212e-16 0)
(3 8.80787e-17 0)
(3 1.95861e-16 0)
(3 3.8177e-16 0)
(3 5.10741e-16 0)
(3 4.56417e-16 0)
(3 4.93335e-16 0)
(3 -1.42684e-16 0)
(3 -1.18735e-15 0)
(3 2.77863e-16 0)
(3 6.90145e-16 0)
(3 6.79039e-16 0)
(3 1.21482e-16 0)
(3 -1.06532e-15 0)
(3 -2.07906e-15 0)
(3 -1.66881e-15 0)
(3 -9.29994e-16 0)
(3 4.01876e-16 0)
(3 -4.85076e-16 0)
(3 -2.0485e-15 0)
(3 -2.51825e-15 0)
(3 -2.06851e-15 0)
(3 -1.89219e-15 0)
(3 -1.65843e-15 0)
(3 -1.67511e-15 0)
(3 -3.19925e-16 0)
(3 1.83857e-17 0)
(3 -1.99316e-17 0)
(3 -5.25739e-16 0)
(3 -1.15665e-15 0)
(3 -5.34734e-15 0)
(1.9262 0.162788 0)
(0.830964 0.15586 0)
(0.756313 0.172806 0)
(0.739115 0.164721 0)
(0.721819 0.157476 0)
(0.706621 0.151069 0)
(0.691439 0.149196 0)
(0.67655 0.151385 0)
(0.661865 0.156549 0)
(0.647157 0.162538 0)
(0.632116 0.166671 0)
(0.616837 0.167376 0)
(0.601649 0.164632 0)
(0.586679 0.160644 0)
(0.571739 0.159747 0)
(0.557535 0.163939 0)
(0.543839 0.171032 0)
(0.528984 0.176436 0)
(0.513169 0.17675 0)
(0.497527 0.173943 0)
(0.481983 0.174395 0)
(0.467621 0.179556 0)
(0.452913 0.184568 0)
(0.43751 0.186181 0)
(0.421983 0.18811 0)
(0.40652 0.191929 0)
(0.390834 0.195848 0)
(0.374884 0.199193 0)
(0.358818 0.202618 0)
(0.342586 0.206288 0)
(0.325986 0.209859 0)
(0.308879 0.213265 0)
(0.291236 0.216871 0)
(0.273032 0.220718 0)
(0.254293 0.22445 0)
(0.23515 0.227985 0)
(0.215716 0.231475 0)
(0.195994 0.234797 0)
(0.175984 0.237809 0)
(0.155709 0.240414 0)
(0.135251 0.242897 0)
(0.114638 0.245001 0)
(0.0940107 0.247557 0)
(0.073299 0.250369 0)
(0.0526743 0.254709 0)
(0.0316592 0.257737 0)
(0.0108703 0.262047 0)
(3 3.04853e-17 0)
(3 -2.35635e-17 0)
(3 2.4897e-18 0)
(3 3.17194e-17 0)
(3 2.40954e-16 0)
(3 8.40748e-16 0)
(3 8.54075e-16 0)
(3 1.17466e-15 0)
(3 3.45528e-16 0)
(3 3.12538e-16 0)
(3 3.10732e-16 0)
(3 4.79213e-16 0)
(3 -1.40371e-16 0)
(3 -2.49477e-16 0)
(3 -5.51832e-16 0)
(3 -2.30306e-16 0)
(3 4.7692e-16 0)
(3 5.13948e-16 0)
(3 3.34179e-16 0)
(3 3.10951e-16 0)
(3 -6.21041e-16 0)
(3 -5.63949e-16 0)
(3 -3.45695e-16 0)
(3 3.78946e-19 0)
(3 -1.28256e-16 0)
(3 -8.94025e-16 0)
(3 -7.96739e-16 0)
(3 -3.8276e-16 0)
(3 -1.65064e-16 0)
(3 -2.40153e-16 0)
(3 -1.01774e-15 0)
(3 -2.38143e-15 0)
(3 -1.97681e-15 0)
(3 -6.46887e-16 0)
(3 2.70376e-16 0)
(3 9.17e-16 0)
(3 9.56033e-16 0)
(3 1.01995e-15 0)
(3 8.78043e-16 0)
(3 3.9547e-16 0)
(3 -5.43086e-16 0)
(3 -7.61351e-16 0)
(3 -9.67009e-16 0)
(3 -5.89043e-16 0)
(3 -1.73893e-16 0)
(3 1.19571e-16 0)
(3 -1.07399e-16 0)
(3 -1.19093e-15 0)
(3 -5.45288e-15 0)
(2.11793 0.167523 0)
(0.852265 0.176559 0)
(0.754571 0.187319 0)
(0.740112 0.177843 0)
(0.724315 0.170404 0)
(0.709409 0.164111 0)
(0.693742 0.16189 0)
(0.678117 0.164002 0)
(0.662746 0.169218 0)
(0.647723 0.17545 0)
(0.632771 0.180022 0)
(0.617833 0.181279 0)
(0.603008 0.179006 0)
(0.588379 0.17479 0)
(0.573633 0.172848 0)
(0.559554 0.17629 0)
(0.546376 0.183551 0)
(0.532132 0.189848 0)
(0.516487 0.191152 0)
(0.500772 0.188524 0)
(0.484998 0.188558 0)
(0.470357 0.193508 0)
(0.455585 0.198837 0)
(0.440105 0.200764 0)
(0.424571 0.202769 0)
(0.409193 0.206762 0)
(0.393612 0.211009 0)
(0.377693 0.214698 0)
(0.361612 0.218485 0)
(0.345384 0.222596 0)
(0.328836 0.22668 0)
(0.311841 0.230617 0)
(0.294364 0.234749 0)
(0.276346 0.239136 0)
(0.257745 0.243402 0)
(0.238652 0.247415 0)
(0.219177 0.251325 0)
(0.199333 0.255017 0)
(0.179144 0.25837 0)
(0.158656 0.261287 0)
(0.137968 0.264072 0)
(0.117077 0.266393 0)
(0.0961123 0.269097 0)
(0.074966 0.271886 0)
(0.0538782 0.276306 0)
(0.0323685 0.279393 0)
(0.011127 0.283917 0)
(3 1.40888e-16 0)
(3 7.75494e-16 0)
(3 6.07297e-16 0)
(3 4.2642e-16 0)
(3 5.81508e-16 0)
(3 1.39359e-15 0)
(3 1.54174e-15 0)
(3 1.52757e-15 0)
(3 2.80661e-16 0)
(3 -6.11326e-17 0)
(3 3.84794e-16 0)
(3 2.77064e-16 0)
(3 -1.76143e-16 0)
(3 -6.96977e-17 0)
(3 3.07305e-16 0)
(3 6.9679e-16 0)
(3 5.07737e-16 0)
(3 -8.13721e-17 0)
(3 -9.22565e-16 0)
(3 -1.02191e-15 0)
(3 -1.49398e-15 0)
(3 -1.66843e-15 0)
(3 -1.62986e-15 0)
(3 -1.33517e-15 0)
(3 -1.37073e-15 0)
(3 -1.13667e-15 0)
(3 -1.07783e-16 0)
(3 -1.83773e-16 0)
(3 -7.7936e-16 0)
(3 -1.02378e-15 0)
(3 -1.27918e-15 0)
(3 -1.59771e-15 0)
(3 -1.00291e-15 0)
(3 1.16571e-15 0)
(3 1.15992e-15 0)
(3 1.13376e-15 0)
(3 2.07265e-15 0)
(3 2.93711e-15 0)
(3 2.70724e-15 0)
(3 1.52539e-15 0)
(3 -2.77203e-16 0)
(3 -6.6313e-16 0)
(3 -4.65737e-16 0)
(3 -1.56732e-16 0)
(3 -1.4697e-17 0)
(3 -9.73428e-18 0)
(3 5.95706e-17 0)
(3 -3.83833e-16 0)
(3 -3.35201e-16 0)
(2.33189 0.168652 0)
(0.88421 0.200717 0)
(0.757733 0.200558 0)
(0.746246 0.189652 0)
(0.730888 0.183068 0)
(0.715748 0.177774 0)
(0.699131 0.176224 0)
(0.682436 0.178088 0)
(0.666267 0.182924 0)
(0.650942 0.188806 0)
(0.63614 0.193286 0)
(0.621492 0.194798 0)
(0.606707 0.19305 0)
(0.591733 0.188994 0)
(0.57642 0.186232 0)
(0.561563 0.188745 0)
(0.548091 0.195941 0)
(0.534167 0.203092 0)
(0.51877 0.205508 0)
(0.503305 0.203172 0)
(0.487772 0.202748 0)
(0.473396 0.207395 0)
(0.45905 0.212991 0)
(0.443788 0.215272 0)
(0.428326 0.217374 0)
(0.412957 0.221585 0)
(0.397306 0.226246 0)
(0.381182 0.230344 0)
(0.364845 0.234496 0)
(0.348435 0.239007 0)
(0.331857 0.243554 0)
(0.314991 0.247976 0)
(0.297775 0.252596 0)
(0.280074 0.257504 0)
(0.261734 0.262316 0)
(0.242765 0.266852 0)
(0.223264 0.271248 0)
(0.203268 0.275393 0)
(0.182838 0.279174 0)
(0.162055 0.28248 0)
(0.141046 0.285634 0)
(0.119791 0.288232 0)