/*--------------------------------*- C++ -*----------------------------------*\
  =========                 |
  \\      /  F ield         | OpenFOAM: The Open Source CFD Toolbox
   \\    /   O peration     | Website:  https://openfoam.org
    \\  /    A nd           | Version:  7
     \\/     M anipulation  |
\*---------------------------------------------------------------------------*/
FoamFile
{
    version     2.0;
    format      ascii;
    class       volScalarField;
    location    "3";
    object      T;
}
// * * * * * * * * * * * * * * * * * * * * * * * * * * * * * * * * * * * * * //

dimensions      [0 0 0 1 0 0 0];

internalField   nonuniform List<scalar> 
4032
(
1
1
1
1
1
1
1
1
1
1
1
1.05685
2.33076
2.72183
2.72952
2.74135
2.75327
2.7659
2.77947
2.79322
2.80567
2.81529
2.82212
2.82661
1
1
1
1
1
1
1
1
1
1
1
1.02667
2.30933
2.719
2.72759
2.73962
2.75157
2.764
2.77722
2.79043
2.80225
2.81125
2.81751
2.82168
1
1
1
1
1
1
1
1
1
1
1
1.00112
2.26554
2.71476
2.72481
2.73693
2.74875
2.7607
2.77332
2.78583
2.79699
2.80558
2.81151
2.81582
1
1
1
1
1
1
1
1
1
1
1
1.00001
2.19947
2.70601
2.72051
2.73275
2.74454
2.75598
2.76792
2.77962
2.78988
2.79735
2.80188
2.80474
1
1
1
1
1
1
1
1
1
1
1
1
2.10412
2.68973
2.71481
2.72698
2.73854
2.74898
2.75944
2.76927
2.77758
2.78352
2.78686
2.79061
1
1
1
1
1
1
1
1
1
1
1
1
1.97234
2.65945
2.70333
2.71662
2.72862
2.73844
2.74778
2.75651
2.76374
2.76792
2.76729
2.76264
1
1
1
1
1
1
1
1
1
1
1
1
1.7951
2.60476
2.68485
2.70248
2.71628
2.72591
2.73361
2.73971
2.7424
2.73893
2.73163
2.72522
1
1
1
1
1
1
1
1
1
1
1
1
1.5421
2.50486
2.65721
2.68196
2.69847
2.70895
2.71597
2.71895
2.71677
2.71137
2.7063
2.71639
1
1
1
1
1
1
1
1
1
1
1
1
1.19697
2.37171
2.63508
2.65184
2.67015
2.68326
2.68984
2.6912
2.68431
2.6668
2.61638
2.51591
1
1
1
1
1
1
1
1
1
1
1
1
1.01077
2.25297
2.61619
2.61617
2.63107
2.64698
2.65503
2.65485
2.6447
2.61439
2.5586
2.39564
1
1
1
1
1
1
1
1
1
1
1
1
1.00001
2.02623
2.58568
2.6013
2.61098
2.61648
2.61994
2.61642
2.60291
2.56681
2.50409
2.32165
1
1
1
1
1
1
1
1
1
1
1
1
0.999999
1.64151
2.48787
2.58223
2.58602
2.58892
2.58747
2.57879
2.56016
2.52386
2.45082
2.29373
1
1
1
1
1
1
1
1
1
1
1
1
1
1.14233
2.32365
2.57971
2.56649
2.56325
2.55693
2.54332
2.52014
2.48369
2.40805
2.29302
1
1
1
1
1
1
1
1
1
1
1
1
1
1.00537
2.13518
2.51983
2.53325
2.53479
2.5272
2.51123
2.48678
2.44551
2.37713
2.28884
1
1
1
1
1
1
1
1
1
1
1
1
1
0.999976
1.68799
2.40936
2.51313
2.51215
2.50357
2.48599
2.46055
2.41703
2.35738
2.28561
1
1
1
1
1
1
1
1
1
1
1
1
1
0.999993
1.13219
2.22603
2.49171
2.48503
2.47647
2.45931
2.43459
2.39362
2.34215
2.28033
1
1
1
1
1
1
1
1
1
1
1
1
1
0.999999
1.00409
1.94446
2.41246
2.45278
2.44598
2.43251
2.40944
2.37391
2.32953
2.27548
1
1
1
1
1
1
1
1
1
1
1
1
1
1
0.99999
1.32916
2.24427
2.42738
2.41459
2.403
2.38228
2.35184
2.3137
2.26724
1
1
1
1
1
1
1
1
1
1
1
1
1
1
0.999997
1.02545
2.03132
2.38163
2.37514
2.36634
2.34998
2.32502
2.2936
2.25536
1
1
1
1
1
1
1
1
1
1
1
1
1
1
0.999999
1.0001
1.45569
2.23051
2.35497
2.33825
2.32116
2.30013
2.27471
2.24299
1
1
1
1
1
1
1
1
1
1
1
1
1
1
1
1
1.05196
2.01461
2.32597
2.31153
2.29341
2.27345
2.2508
2.22389
1
1
1
1
1
1
1
1
1
1
1
1
1
1
1
1
1.00053
1.42676
2.16181
2.29231
2.271
2.25168
2.22945
2.20455
1
1
1
1
1
1
1
1
1
1
1
1
1
1
1
1
1
1.04604
1.91435
2.26387
2.24968
2.22986
2.20791
2.18463
1
1
1
1
1
1
1
1
1
1
1
1
1
1
1
1
1
1.00049
1.33631
2.07983
2.23003
2.20689
2.18884
2.16859
1
1
1
1
1
1
1
1
1
1
1
1
1
1
1
1
1
1
1.02653
1.71211
2.16012
2.18911
2.17337
2.15493
1
1
1
1
1
1
1
1
1
1
1
1
1
1
1
1
1
1
1.00025
1.17977
1.93497
2.16884
2.15296
2.13658
1
1
1
1
1
1
1
1
1
1
1
1
1
1
1
1
1
1
1
1.00732
1.44285
2.01707
2.13416
2.11463
1
1
1
1
1
1
1
1
1
1
1
1
1
1
1
1
1
1
1
1.00005
1.0551
1.69484
2.055
2.10388
1
1
1
1
1
1
1
1
1
1
1
1
1
1
1
1
1
1
1
1
1.00097
1.19072
1.82676
2.07067
1
1
1
1
1
1
1
1
1
1
1
1
1
1
1
1
1
1
1
1
1
1.0088
1.35894
1.90164
1
1
1
1
1
1
1
1
1
1
1
1
1
1
1
1
1
1
1
1
1
1.00008
1.03661
1.51729
1
1
1
1
1
1
1
1
1
1
1
1
1
1
1
1
1
1
1
1
1
1
1.00058
1.09523
1
1
1
1
1
1
1
1
1
1
1
1
1
1
1
1
1
1
1
1
1
1
1
1.00274
1
1
1
1
1
1
1
1
1
1
1
1
1
1
1
1
1
1
1
1
1
1
1
1.00002
1
1
1
1
1
1
1
1
1
1
1
1
1
1
1
1
1
1
1
1
1
1
1
1
1
1
1
1
1
1
1
1
1
1
1
1
1
1
1
1
1
1
1
1
1
1
1
1
1
1
1
1
1
1
1
1
1
1
1
1
1
1
1
1
1
1
1
1
1
1
1
1
1
1
1
1
1
1
1
1
1
1
1
1
1
1
1
1
1
1
1
1
1
1
1
1
1
1
1
1
1
1
1
1
1
1
1
1
1
1
1
1
1
1
1
1
1
1
1
1
1
1
1
1
1
1
1
1
1
1
1
1
1
1
1
1
1
1
1
1
1
1
1
1
1.69267
1.22054
1.00963
1.01425
1.09673
1.21634
1.30322
1.42182
1.57698
1.63919
1.65841
1.65147
1.63982
1.65419
1.72219
1.77193
1.76592
1.74112
1.71566
1.70873
1.70873
1.71424
1.72267
1.72491
1.71899
1.70798
1.69983
1.69804
1.69818
1.70203
1.7052
1.70373
1.90607
2.64944
2.85213
2.84113
2.81998
2.78969
2.75713
2.72731
2.70196
2.67987
2.66138
2.64429
2.62437
2.59852
2.56849
2.5396
2.51638
2.50052
2.49086
2.48322
2.47043
2.45091
2.42742
2.40224
2.37958
2.36147
2.35102
2.3454
2.33848
2.32876
2.31614
2.29901
2.27984
2.26206
2.2467
2.23427
2.22553
2.21684
2.20725
2.19524
2.1768
2.15578
2.13918
2.12671
2.1156
2.10783
2.10424
2.09787
2.09113
2.08464
2.07544
2.06046
2.04086
2.02416
2.01497
2.00789
2.00073
1.99429
1.9878
1.98082
1.97359
1.96295
1.94619
1.92289
1.9275
1.62927
1.50567
1.37588
1.29885
1.27453
1.25666
1.27616
1.3132
1.34539
1.36123
1.3937
1.44412
1.49744
1.55451
1.60219
1.63811
1.63849
1.63677
1.63984
1.64752
1.66405
1.67648
1.67735
1.6722
1.66588
1.66737
1.67056
1.67285
1.67097
1.66813
1.6711
1.76758
2.52759
2.7926
2.77481
2.74401
2.71742
2.69441
2.67318
2.65105
2.63064
2.61261
2.59733
2.58324
2.56672
2.54496
2.5197
2.49639
2.47813
2.46542
2.45737
2.44978
2.43745
2.41979
2.39821
2.37452
2.35423
2.33957
2.32849
2.31944
2.31065
2.30028
2.28791
2.2731
2.25546
2.23773
2.22327
2.21183
2.20295
2.1956
2.18644
2.17399
2.15864
2.14107
2.1246
2.11211
2.10232
2.09483
2.0879
2.08102
2.07442
2.06702
2.05642
2.04155
2.02421
2.01132
2.00355
1.9964
1.98939
1.98303
1.97651
1.96982
1.96058
1.94717
1.92442
2.04359
1.82652
1.69639
1.56804
1.44423
1.38134
1.34487
1.28734
1.26885
1.25741
1.25578
1.27932
1.31713
1.35589
1.38494
1.41229
1.45758
1.49605
1.52066
1.54143
1.56184
1.58442
1.60198
1.60229
1.60076
1.59883
1.60097
1.60655
1.61031
1.61144
1.61623
1.65386
1.81011
2.23994
2.57929
2.63136
2.60236
2.58172
2.57097
2.56507
2.55129
2.53894
2.52425
2.50928
2.49666
2.48556
2.4738
2.45885
2.44165
2.42427
2.40824
2.39725
2.38981
2.38286
2.37355
2.36146
2.34706
2.33069
2.31267
2.29447
2.28039
2.27013
2.2616
2.25389
2.2454
2.23489
2.22073
2.20249
2.18533
2.17397
2.16439
2.15649
2.15071
2.14311
2.1334
2.11973
2.10122
2.08453
2.07415
2.06583
2.05833
2.05142
2.04429
2.03757
2.03017
2.01911
2.00305
1.99042
1.98329
1.97677
1.96997
1.96292
1.9553
1.94647
1.9376
1.92124
2.10414
1.94347
1.81999
1.70882
1.60207
1.52734
1.46665
1.39514
1.36173
1.34145
1.31386
1.28021
1.2785
1.28426
1.29271
1.3037
1.33254
1.37785
1.41444
1.4436
1.46729
1.48668
1.51151
1.52628
1.53508
1.54061
1.54686
1.55607
1.55623
1.56163
1.59621
1.75388
1.93517
2.02755
2.25892
2.42546
2.45725
2.47895
2.46705
2.45751
2.44364
2.43424
2.42607
2.4151
2.40359
2.39492
2.38691
2.37832
2.36666
2.35406
2.34024
2.32688
2.31864
2.31346
2.30829
2.30216
2.29395
2.28238
2.26813
2.24964
2.22963
2.2168
2.20933
2.203
2.19731
2.19157
2.18426
2.17268
2.15422
2.13632
2.12613
2.11945
2.11426
2.11058
2.10575
2.09667
2.0831
2.06343
2.04488
2.03299
2.02412
2.01647
2.01118
2.00844
2.00571
2.00092
1.99066
1.97357
1.95998
1.95292
1.94631
1.93906
1.93127
1.92352
1.91801
1.90786
2.15432
2.02562
1.9169
1.80465
1.71542
1.6484
1.57878
1.50113
1.45177
1.41668
1.38589
1.34726
1.30735
1.2953
1.29592
1.29995
1.30039
1.30643
1.32033
1.34266
1.37502
1.40872
1.44278
1.46819
1.48118
1.48684
1.49803
1.50626
1.51498
1.557
1.70988
1.89584
2.00878
2.00679
2.04339
2.18747
2.31206
2.38545
2.40748
2.4036
2.3923
2.37772
2.36831
2.35694
2.34453
2.33666
2.32797
2.31957
2.31019
2.30064
2.29093
2.27865
2.26529
2.25741
2.25267
2.24755
2.24133
2.23315
2.22283
2.20839
2.18826
2.17039
2.161
2.1548
2.1497
2.14493
2.13963
2.13166
2.11708
2.09804
2.08727
2.08156
2.0768
2.07357
2.06948
2.06255
2.05311
2.03784
2.0155
1.99625
1.98534
1.97872
1.97514
1.97377
1.97274
1.97102
1.96674
1.95609
1.93842
1.92373
1.91498
1.90741
1.90028
1.8945
1.89135
1.88497
2.18319
2.08017
1.98507
1.88551
1.79802
1.73169
1.66459
1.59519
1.54371
1.49587
1.46172
1.43639
1.39668
1.35405
1.34074
1.33431
1.32158
1.31032
1.3005
1.3011
1.30724
1.32444
1.3542
1.39761
1.43212
1.44688
1.465
1.47224
1.5042
1.68548
1.8779
1.97184
2.0174
2.01404
2.00506
2.02523
2.12037
2.26417
2.34402
2.36194
2.36959
2.35778
2.34612
2.32961
2.31093
2.29765
2.2883
2.28136
2.27534
2.26679
2.25823
2.24763
2.2317
2.21795
2.21101
2.20524
2.20004
2.19414
2.18653
2.17647
2.16159
2.14224
2.12641
2.11757
2.11188
2.10736
2.10302
2.09757
2.08879
2.07405
2.05747
2.04847
2.04292
2.03849
2.0349
2.02962
2.02206
2.01106
1.99375
1.9711
1.95387
1.94625
1.94262
1.94049
1.9392
1.93813
1.93616
1.93085
1.91794
1.89815
1.8835
1.87551
1.87027
1.86646
1.86388
1.85843
2.20093
2.11848
2.03453
1.94506
1.86938
1.80044
1.73244
1.67163
1.62462
1.57217
1.52243
1.49755
1.47481
1.43973
1.39084
1.36559
1.35044
1.33468
1.3217
1.30775
1.30309
1.30442
1.3099
1.32572
1.3529
1.38106
1.41068
1.45235
1.62688
1.85737
1.95013
1.98511
2.00287
2.00549
2.00182
1.99129
1.99652
2.06529
2.20593
2.29137
2.33581
2.34382
2.33356
2.31632
2.29628
2.2771
2.26406
2.25618
2.25157
2.24462
2.23636
2.22747
2.21416
2.19686
2.18422
2.1764
2.17062
2.16591
2.15985
2.15176
2.14078
2.12612
2.10889
2.09444
2.08544
2.08007
2.0759
2.07139
2.06542
2.05597
2.04093
2.02501
2.01639
2.01096
2.00656
2.0019
1.99531
1.98646
1.9744
1.95733
1.93659
1.92228
1.91664
1.91389
1.91198
1.9104
1.90829
1.90435
1.89503
1.87673
1.85771
1.84887
1.84435
1.84065
1.83897
1.8331
2.20949
2.14034
2.06537
1.98845
1.92377
1.86072
1.78909
1.7332
1.68718
1.64138
1.58975
1.55265
1.52701
1.4989
1.4671
1.42749
1.39786
1.38217
1.36994
1.3552
1.33777
1.31826
1.31195
1.31425
1.3153
1.32191
1.34897
1.51475
1.78535
1.88244
1.92427
1.93964
1.95317
1.96773
1.97172
1.97213
1.96293
1.95566
2.00475
2.12737
2.24784
2.30851
2.30918
2.29946
2.28434
2.26928
2.25164
2.2393
2.23059
2.22334
2.21598
2.20819
2.19873
2.18576
2.17108
2.15805
2.14818
2.14136
2.13555
2.12919
2.12107
2.111
2.09898
2.08464
2.06962
2.05893
2.05328
2.04902
2.04437
2.03836
2.02899
2.01437
1.99793
1.98726
1.98078
1.97578
1.97111
1.96499
1.95696
1.94563
1.92965
1.91204
1.90005
1.89311
1.88983
1.88824
1.88642
1.88193
1.87371
1.86
1.84396
1.83166
1.82462
1.81991
1.81772
1.8121
2.21454
2.15307
2.08841
2.02292
1.96215
1.9012
1.83752
1.78738
1.74165
1.69117
1.64359
1.61109
1.5775
1.54047
1.51649
1.48957
1.45436
1.42035
1.40383
1.39352
1.38236
1.36592
1.33758
1.31886
1.31646
1.33158
1.45252
1.70583
1.81722
1.82646
1.83453
1.8491
1.869
1.89152
1.90658
1.92112
1.92166
1.9173
1.92032
1.94979
2.05121
2.18559
2.24296
2.26619
2.26781
2.2592
2.24534
2.22771
2.2117
2.20001
2.19229
2.18496
2.17817
2.17073
2.16194
2.14939
2.13354
2.12034
2.11217
2.10574
2.09956
2.09246
2.08436
2.07432
2.06074
2.04496
2.0338
2.02807
2.02344
2.0184
2.01219
2.00274
1.98727
1.97053
1.96073
1.95468
1.9492
1.94372
1.93756
1.93023
1.92061
1.90672
1.88935
1.87679
1.87062
1.86559
1.85999
1.85434
1.84843
1.84212
1.83439
1.82464
1.81382
1.80615
1.8027
1.79683
2.21407
2.16056
2.10331
2.04447
1.99088
1.93527
1.87721
1.82742
1.78289
1.73704
1.69382
1.6594
1.6225
1.58306
1.55553
1.5345
1.51099
1.47829
1.44077
1.42523
1.42199
1.41219
1.38532
1.35603
1.36256
1.46198
1.68274
1.82562
1.82177
1.81175
1.80257
1.79369
1.78894
1.79297
1.80195
1.81646
1.8389
1.85929
1.86769
1.86857
1.88451
1.96173
2.08195
2.17744
2.22123
2.24002
2.23213
2.21666
2.19872
2.17815
2.16796
2.16087
2.15589
2.15174
2.14578
2.13756
2.12361
2.10414
2.08956
2.08176
2.07567
2.0697
2.06313
2.05605
2.04747
2.03439
2.01796
2.00716
2.00161
1.99669
1.99135
1.98462
1.97502
1.96048
1.94432
1.93396
1.92788
1.92304
1.9184
1.91311
1.9066
1.89694
1.88142
1.8636
1.85184
1.8448
1.83905
1.83327
1.82825
1.82452
1.8205
1.81515
1.80746
1.79737
1.78926
1.77752
2.21144
2.16456
2.11409
2.0635
2.01363
1.95872
1.90743
1.86536
1.82173
1.77155
1.73388
1.70069
1.66551
1.62855
1.59654
1.56743
1.54533
1.52623
1.50371
1.47017
1.44209
1.42987
1.41554
1.41858
1.50609
1.71217
1.8562
1.85427
1.83356
1.81162
1.7982
1.78804
1.77827
1.76717
1.7561
1.74959
1.75299
1.76416
1.77476
1.78389
1.78613
1.79595
1.85207
1.97854
2.10384
2.17639
2.19769
2.19738
2.18533
2.16376
2.14579
2.13707
2.13236
2.12987
2.12565
2.11888
2.10852
2.09121
2.06993
2.05684
2.05094
2.04613
2.041
2.0348
2.02812
2.01945
2.00551
1.98909
1.97895
1.97331
1.96839
1.96325
1.95696
1.94766
1.93303
1.9171
1.90745
1.90197
1.89774
1.89368
1.88876
1.88178
1.87008
1.85291
1.83618
1.82588
1.81977
1.81559
1.8127
1.80986
1.80646
1.80221
1.7965
1.7873
1.77546
1.75826
2.20575
2.16353
2.11872
2.0737
2.02774
1.97912
1.93353
1.89119
1.8487
1.80407
1.76972
1.73629
1.69741
1.66121
1.63726
1.61081
1.57118
1.55035
1.54037
1.5188
1.48283
1.45688
1.4628
1.54593
1.75213
1.89572
1.89325
1.87227
1.85104
1.83619
1.82248
1.80555
1.78393
1.75957
1.74526
1.73608
1.7271
1.71866
1.71246
1.70768
1.70205
1.69866
1.70333
1.73942
1.85836
2.00341
2.1121
2.15409
2.16251
2.1549
2.13272
2.11666
2.10956
2.10633
2.10502
2.09878
2.08939
2.07565
2.05734
2.03873
2.02837
2.02291
2.01815
2.01289
2.00637
1.99952
1.99033
1.97626
1.9612
1.95096
1.9446
1.93958
1.93439
1.92769
1.91756
1.90345
1.89019
1.88193
1.87645
1.87172
1.86675
1.86069
1.85226
1.83979
1.8243
1.81024
1.80315
1.80022
1.79777
1.79517
1.7921
1.78821
1.78299
1.77394
1.7604
1.74042
2.19255
2.15609
2.11707
2.07881
2.03693
1.99262
1.95369
1.91509
1.87291
1.83181
1.79742
1.76478
1.73081
1.69307
1.66557
1.64196
1.61217
1.5796
1.56139
1.54321
1.51822
1.52005
1.60384
1.80711
1.94532
1.93761
1.91097
1.88748
1.87362
1.85911
1.8413
1.82141
1.79902
1.77465
1.75173
1.73247
1.71774
1.70669
1.69525
1.68675
1.68055
1.66928
1.65493
1.6369
1.64499
1.70847
1.8548
1.99078
2.10022
2.11979
2.11645
2.10717
2.09475
2.08461
2.07593
2.06806
2.06206
2.05516
2.04401
2.03061
2.01706
2.00601
1.99837
1.99236
1.98712
1.98065
1.97237
1.96107
1.9484
1.93561
1.92453
1.91662
1.91094
1.90532
1.89793
1.88754
1.87489
1.86345
1.8553
1.84931
1.84378
1.83757
1.83017
1.82145
1.81082
1.799
1.78985
1.78533
1.7824
1.77962
1.77659
1.77206
1.76542
1.75563
1.74229
1.72235
2.17683
2.14539
2.11258
2.07826
2.04088
2.00311
1.9676
1.93056
1.88948
1.85576
1.82243
1.78773
1.75199
1.72323
1.69334
1.66476
1.64209
1.61565
1.58575
1.56204
1.56837
1.65587
1.85871
1.99706
1.99191
1.96061
1.92771
1.90741
1.89246
1.87488
1.85613
1.8373
1.81708
1.79424
1.7686
1.74272
1.72283
1.70605
1.69066
1.67638
1.66411
1.65338
1.64387
1.63318
1.61259
1.59358
1.60746
1.69049
1.85104
1.98779
2.06102
2.0864
2.0838
2.07024
2.05634
2.04297
2.03361
2.02651
2.02188
2.01618
2.00942
1.99952
1.98674
1.97368
1.96223
1.95335
1.94643
1.9407
1.93394
1.9249
1.9133
1.90036
1.88982
1.88311
1.87725
1.86988
1.86007
1.84834
1.83689
1.82796
1.82128
1.81525
1.80916
1.80294
1.79623
1.78836
1.7784
1.76964
1.76634
1.76422
1.76055
1.75441
1.74647
1.73561
1.7212
1.70435
2.15907
2.13187
2.10414
2.07362
2.03946
2.00754
1.97472
1.93926
1.90247
1.87223
1.84059
1.80675
1.77246
1.74684
1.71896
1.68802
1.66355
1.63944
1.61176
1.61639
1.71001
1.8996
2.03256
2.03179
2.00714
1.97711
1.94806
1.92478
1.90509
1.88522
1.86533
1.84577
1.82655
1.80766
1.78743
1.76123
1.7313
1.70883
1.69154
1.6753
1.65947
1.64579
1.63465
1.62355
1.6095
1.58974
1.57178
1.55942
1.5817
1.68706
1.83564
1.9703
2.0334
2.04441
2.03737
2.01788
2.00745
2.00036
1.99615
1.99554
1.99219
1.98631
1.97603
1.95833
1.94118
1.93197
1.92605
1.92058
1.91532
1.90944
1.90145
1.88944
1.87529
1.86439
1.8572
1.85086
1.84323
1.83372
1.82186
1.80927
1.80013
1.79475
1.79065
1.78614
1.7808
1.77473
1.76775
1.75888
1.74937
1.74159
1.73623
1.73221
1.72706
1.71701
1.70336
1.68945
2.1453
2.12043
2.09469
2.06643
2.0365
2.00712
1.97644
1.94258
1.91212
1.88321
1.85343
1.81991
1.79092
1.76502
1.73873
1.71125
1.68167
1.65655
1.66907
1.77854
1.95455
2.06296
2.06019
2.03966
2.01737
1.99436
1.96889
1.94146
1.9152
1.89248
1.87146
1.85164
1.8336
1.81675
1.79904
1.77732
1.74906
1.71984
1.69723
1.67962
1.66345
1.64802
1.63348
1.61998
1.60748
1.59194
1.56998
1.54872
1.53532
1.52889
1.55817
1.6685
1.81717
1.93193
1.98709
1.98523
1.98605
1.97823
1.96967
1.96783
1.96706
1.96283
1.95679
1.94328
1.92323
1.91162
1.90627
1.90181
1.8973
1.89209
1.88547
1.8758
1.86256
1.84927
1.83941
1.83278
1.82751
1.82009
1.80919
1.79695
1.78598
1.77697
1.77161
1.7685
1.76606
1.7632
1.75797
1.74832
1.73511
1.72412
1.71715
1.71013
1.70244
1.69445
1.68854
1.68004
2.1338
2.11032
2.08464
2.05744
2.03147
2.00421
1.97491
1.94407
1.91771
1.88957
1.86093
1.8295
1.8063
1.77961
1.75329
1.72554
1.69845
1.71772
1.85497
2.03597
2.1027
2.09372
2.06386
2.04045
2.0252
2.00695
1.98442
1.95802
1.92649
1.89707
1.87467
1.85546
1.83769
1.82052
1.8027
1.78295
1.75875
1.72932
1.70262
1.68267
1.6659
1.65026
1.63518
1.62035
1.60607
1.59063
1.57315
1.55167
1.52893
1.51278
1.50073
1.50011
1.53434
1.64031
1.78463
1.88667
1.93557
1.94135
1.94185
1.9432
1.93907
1.93339
1.92782
1.9185
1.90368
1.89144
1.88497
1.88099
1.87712
1.87256
1.86673
1.85839
1.84674
1.83386
1.82323
1.81498
1.80642
1.79732
1.78888
1.78133
1.77309
1.76498
1.75889
1.754
1.74897
1.74297
1.73638
1.72946
1.7209
1.7113
1.70197
1.69335
1.68547
1.6784
1.67477
1.66835
2.11847
2.09761
2.07364
2.04913
2.02484
1.99974
1.97186
1.94622
1.92048
1.8943
1.86526
1.83987
1.81588
1.79008
1.76423
1.73941
1.76697
1.9123
2.10867
2.15839
2.13226
2.09463
2.06415
2.04369
2.02904
2.01145
1.99065
1.96733
1.93817
1.90446
1.87728
1.85684
1.83881
1.82155
1.80409
1.78552
1.76479
1.73967
1.71081
1.68557
1.66662
1.65044
1.6351
1.62026
1.60594
1.59105
1.57472
1.55528
1.53212
1.5103
1.49273
1.4806
1.46978
1.47065
1.50965
1.6233
1.75718
1.83926
1.8831
1.8932
1.90394
1.90494
1.89908
1.88946
1.87782
1.86821
1.86122
1.85697
1.85372
1.84946
1.84386
1.83658
1.82681
1.81509
1.80399
1.79473
1.78623
1.77838
1.77136
1.764
1.75704
1.75122
1.74549
1.73896
1.73181
1.72488
1.71804
1.71079
1.704
1.69744
1.68938
1.68068
1.67497
1.67159
1.66867
1.6607
2.09762
2.08041
2.06111
2.04076
2.01834
1.99388
1.96916
1.9466
1.92169
1.89594
1.86901
1.84695
1.82001
1.79674
1.7774
1.81645
1.97756
2.1339
2.19559
2.17951
2.14282
2.10611
2.07078
2.04712
2.02978
2.01158
1.99144
1.96976
1.9445
1.91326
1.88133
1.85747
1.83842
1.8208
1.80315
1.78472
1.76508
1.74304
1.71751
1.69127
1.6685
1.64935
1.63197
1.61534
1.59966
1.5854
1.57193
1.5568
1.53667
1.51504
1.49433
1.47778
1.46287
1.45243
1.44229
1.44581
1.48773
1.59497
1.70613
1.79394
1.83289
1.85297
1.86249
1.85934
1.85303
1.84459
1.83519
1.82928
1.82608
1.82201
1.8174
1.81266
1.80646
1.79647
1.78285
1.77056
1.76357
1.75898
1.75377
1.74762
1.74184
1.73627
1.7306
1.72433
1.71604
1.7066
1.69822
1.69198
1.68789
1.6842
1.67859
1.672
1.66658
1.66115
1.65359
1.64039
2.08653
2.06767
2.0504
2.03228
2.01215
1.98907
1.96743
1.94478
1.92161
1.89551
1.87351
1.84726
1.82484
1.81523
1.87746
2.06347
2.1869
2.20555
2.19828
2.17174
2.14657
2.11966
2.08457
2.05103
2.02833
2.00909
1.98919
1.96785
1.94482
1.91814
1.88741
1.85884
1.83671
1.81731
1.79839
1.77915
1.75933
1.73862
1.71604
1.69166
1.66914
1.65032
1.63315
1.61599
1.59843
1.58043
1.56273
1.54586
1.53067
1.516
1.49924
1.48386
1.46929
1.45536
1.43881
1.42795
1.4157
1.41953
1.45498
1.55441
1.66773
1.75446
1.80242
1.82276
1.82732
1.82146
1.80924
1.79761
1.79077
1.78918
1.78944
1.78818
1.78464
1.77718
1.76544
1.75119
1.74134
1.73619
1.73174
1.72775
1.72447
1.72116
1.71751
1.71091
1.69976
1.68889
1.68171
1.67698
1.67247
1.66708
1.66281
1.661
1.65886
1.65265
1.6416
1.62464
2.06898
2.05313
2.03739
2.02084
2.00171
1.98198
1.96236
1.94137
1.91767
1.89535
1.87207
1.84811
1.85161
1.93573
2.1394
2.25859
2.24268
2.21363
2.18551
2.16543
2.14764
2.12313
2.09177
2.05589
2.02781
2.00585
1.98468
1.96284
1.94002
1.91545
1.88823
1.85979
1.83452
1.81278
1.79228
1.77182
1.75105
1.72976
1.70742
1.68377
1.66118
1.64291
1.62798
1.61374
1.5987
1.58215
1.56412
1.54437
1.5236
1.50491
1.49199
1.48255
1.47174
1.4599
1.44672
1.43244
1.41437
1.39997
1.38727
1.39118
1.43551
1.53096
1.64351
1.72912
1.78225
1.78881
1.78561
1.77613
1.76699
1.76265
1.76026
1.75646
1.75372
1.75223
1.74728
1.7345
1.72285
1.7166
1.71265
1.70978
1.70716
1.70387
1.69692
1.68704
1.67983
1.67275
1.66691
1.66215
1.65727
1.65297
1.65038
1.64757
1.64202
1.63256
1.62224
1.60779
2.0448
2.0356
2.0203
2.00503
1.98879
1.9724
1.95525
1.935
1.91205
1.89374
1.87457
1.89038
2.00039
2.17723
2.28917
2.28531
2.24488
2.20834
2.18235
2.16445
2.14658
2.12161
2.09212
2.05924
2.0279
2.00213
1.97866
1.95515
1.93134
1.90704
1.88137
1.85423
1.82801
1.80492
1.78388
1.76338
1.74282
1.72197
1.70052
1.67814
1.65541
1.6348
1.61808
1.6043
1.59141
1.57823
1.56383
1.5473
1.52849
1.50723
1.48781
1.47439
1.46481
1.45657
1.44805
1.4374
1.42207
1.40367
1.38536
1.37455
1.3709
1.3784
1.42958
1.52598
1.6424
1.70318
1.73783
1.74862
1.74996
1.74913
1.74427
1.73819
1.73423
1.72993
1.72104
1.71018
1.70229
1.69807
1.69659
1.69562
1.69407
1.68951
1.68001
1.66687
1.65477
1.6504
1.64793
1.64516
1.64299
1.64153
1.63964
1.636
1.62722
1.61512
1.60471
1.59153
1.93362
2.02072
2.00722
1.98814
1.97449
1.96011
1.94621
1.92427
1.90751
1.89895
1.94166
2.09064
2.23405
2.29785
2.29799
2.27024
2.23822
2.20888
2.18193
2.15933
2.13726
2.11184
2.0837
2.05374
2.02323
1.99528
1.96994
1.94542
1.92088
1.89595
1.87013
1.84329
1.81702
1.79343
1.77258
1.75312
1.73411
1.71514
1.69577
1.67545
1.65417
1.63321
1.61449
1.59874
1.58504
1.57218
1.5594
1.54606
1.53049
1.51176
1.49307
1.47749
1.46524
1.45508
1.44614
1.43859
1.42906
1.41525
1.39706
1.37999
1.36767
1.36546
1.36521
1.37434
1.42201
1.51577
1.61411
1.67032
1.7014
1.72332
1.72895
1.72761
1.72404
1.7167
1.70494
1.69377
1.68663
1.68355
1.6815
1.6783
1.67216
1.66448
1.65683
1.64737
1.63821
1.63375
1.63091
1.62919
1.628
1.62614
1.62258
1.61563
1.60546
1.59555
1.58967
1.5795
1.64325
1.94159
1.9969
1.97856
1.95913
1.94791
1.93061
1.91433
1.92037
1.99672
2.17037
2.30591
2.31271
2.29311
2.27063
2.24771
2.22826
2.20597
2.17814
2.14847
2.12118
2.09514
2.06872
2.0412
2.01247
1.98445
1.95855
1.93378
1.90917
1.88437
1.85916
1.83365
1.80883
1.78574
1.76474
1.74556
1.72735
1.70938
1.69125
1.67276
1.65372
1.6342
1.61535
1.59842
1.58383
1.57088
1.55806
1.54431
1.52927
1.51349
1.49796
1.48337
1.4711
1.46107
1.4512
1.44007
1.4271
1.41558
1.40532
1.39451
1.38248
1.37101
1.36301
1.35926
1.35411
1.36576
1.40737
1.49923
1.59161
1.66964
1.68855
1.69902
1.70091
1.69623
1.69084
1.68525
1.67852
1.67358
1.6694
1.66347
1.65524
1.64753
1.63862
1.62713
1.62387
1.62366
1.62264
1.62111
1.6187
1.61482
1.60831
1.59858
1.58852
1.57976
1.57134
1.56292
1.18342
1.72273
1.93795
1.97122
1.95412
1.93561
1.92237
1.9495
2.07062
2.21689
2.32485
2.33899
2.30797
2.27028
2.24349
2.22673
2.21136
2.19025
2.16281
2.13164
2.1024
2.07634
2.05121
2.02582
1.99997
1.97406
1.94855
1.92345
1.8986
1.87413
1.85036
1.82754
1.80537
1.78376
1.76311
1.74396
1.72609
1.70838
1.6899
1.671
1.65277
1.6356
1.61897
1.60309
1.58815
1.57395
1.56033
1.5476
1.53457
1.51918
1.50199
1.48795
1.47649
1.4655
1.45539
1.4464
1.43778
1.42865
1.41833
1.4081
1.3969
1.38583
1.37535
1.3659
1.35773
1.34691
1.33513
1.34886
1.39977
1.49633
1.58509
1.65749
1.68414
1.68307
1.67577
1.66849
1.65994
1.65262
1.64687
1.64098
1.63699
1.6332
1.62596
1.61636
1.61089
1.60785
1.60479
1.60207
1.59881
1.59475
1.58913
1.58285
1.57633
1.56822
1.55966
1.55303
1.00922
1.28113
1.75786
1.93833
1.93692
1.93298
2.00147
2.16038
2.28043
2.30749
2.31488
2.30674
2.28419
2.25526
2.23052
2.21265
2.19378
2.17124
2.14533
2.11675
2.08831
2.06221
2.03802
2.01456
1.99112
1.96736
1.9431
1.91844
1.89388
1.86981
1.84696
1.82586
1.80612
1.78694
1.76779
1.74861
1.7299
1.71263
1.69706
1.68203
1.66631
1.65041
1.63507
1.62029
1.60548
1.59044
1.57465
1.55775
1.53985
1.52547
1.51672
1.50709
1.49565
1.48308
1.47015
1.45742
1.44689
1.44028
1.43339
1.42559
1.4178
1.40928
1.39841
1.38456
1.37046
1.35403
1.34154
1.33556
1.33002
1.3429
1.40174
1.49889
1.58876
1.63384
1.66304
1.66132
1.65797
1.65101
1.64197
1.63336
1.62818
1.62152
1.61268
1.6092
1.60694
1.60239
1.59721
1.59218
1.58659
1.58
1.57321
1.56675
1.5605
1.5563
1.55201
1.56061
1.00009
1.02272
1.36198
1.79625
1.89008
2.06703
2.24582
2.33763
2.33784
2.32127
2.29983
2.28641
2.27104
2.24842
2.22385
2.20394
2.1829
2.1594
2.13454
2.10843
2.0818
2.05648
2.03312
2.01095
1.98898
1.96647
1.94294
1.91851
1.8941
1.87104
1.85021
1.83145
1.81411
1.79719
1.77994
1.76244
1.74545
1.72946
1.71389
1.69795
1.68153
1.66511
1.64922
1.63403
1.61947
1.60502
1.58939
1.57206
1.55508
1.53964
1.52457
1.51078
1.49984
1.49048
1.48074
1.46963
1.45836
1.44576
1.43344
1.42449
1.41784
1.41231
1.40491
1.39453
1.3812
1.36443
1.35289
1.34136
1.32787
1.31845
1.31929
1.33856
1.40764
1.49434
1.57863
1.61039
1.63513
1.63868
1.63632
1.63316
1.62858
1.6202
1.61153
1.60489
1.59817
1.59058
1.58408
1.57853
1.57381
1.56969
1.56623
1.56305
1.5572
1.55935
1.57087
1.64395
1
1.00033
1.04386
1.41146
1.99463
2.37995
2.42559
2.41354
2.38196
2.34795
2.32513
2.30906
2.29377
2.2722
2.24776
2.22712
2.20587
2.18256
2.15823
2.13341
2.10807
2.08363
2.06114
2.0398
2.01845
1.99635
1.97314
1.9491
1.92531
1.90331
1.88363
1.86579
1.84899
1.83243
1.81556
1.79842
1.78126
1.76393
1.7461
1.72788
1.70955
1.69135
1.67374
1.65699
1.64108
1.62497
1.60835
1.59166
1.57445
1.55593
1.53728
1.52218
1.51097
1.50202
1.49378
1.48403
1.47155
1.45712
1.44345
1.43227
1.42346
1.41789
1.41288
1.40634
1.3958
1.38094
1.36038
1.34042
1.32881
1.32039
1.31402
1.30939
1.30979
1.33104
1.39622
1.48863
1.56943
1.59918
1.60737
1.61648
1.61596
1.61387
1.61203
1.60682
1.59792
1.58745
1.57937
1.57409
1.57257
1.57121
1.56935
1.57569
1.59828
1.64622
1.7019
1.78798
1
1
1.00074
1.14493
2.35998
2.65027
2.5759
2.50926
2.4597
2.42036
2.39546
2.37807
2.3601
2.33647
2.30962
2.28363
2.25803
2.23141
2.20351
2.17657
2.15048
2.12452
2.10029
2.07732
2.05424
2.03028
2.00538
1.9801
1.95555
1.93278
1.91208
1.89312
1.87529
1.85787
1.84019
1.82188
1.80287
1.78318
1.7628
1.74191
1.72074
1.69977
1.67961
1.66051
1.64226
1.62471
1.60753
1.59023
1.57311
1.55765
1.54477
1.53386
1.52382
1.51383
1.50389
1.49357
1.48262
1.47024
1.45651
1.44345
1.43259
1.42265
1.41227
1.40228
1.39235
1.38156
1.36605
1.3446
1.33373
1.32731
1.31792
1.30689
1.29844
1.28817
1.29172
1.32343
1.3918
1.48033
1.5491
1.59715
1.60302
1.60261
1.6008
1.59487
1.58679
1.57995
1.57833
1.57701
1.57886
1.59112
1.62637
1.68812
1.75516
1.80541
1.84101
1.85108
1
1
1.00001
1.5632
2.64967
2.73922
2.68069
2.63753
2.59662
2.56078
2.5336
2.51004
2.47802
2.44419
2.41341
2.3843
2.35481
2.32348
2.28917
2.25493
2.22374
2.194
2.16571
2.13875
2.1122
2.08507
2.05706
2.029
2.00233
1.97804
1.95618
1.93617
1.91715
1.89813
1.87822
1.85713
1.83525
1.81299
1.79039
1.76739
1.74407
1.72085
1.69832
1.67689
1.65668
1.63769
1.61961
1.6019
1.58483
1.56956
1.55665
1.54616
1.53676
1.52682
1.51609
1.50511
1.49443
1.48358
1.47053
1.45625
1.44171
1.42868
1.4172
1.40706
1.39658
1.38463
1.37058
1.35561
1.3401
1.3248
1.31521
1.3052
1.29586
1.28639
1.2796
1.27333
1.27839
1.31525
1.3897
1.4825
1.54069
1.58198
1.59343
1.59098
1.58682
1.5868
1.5926
1.61492
1.65709
1.72316
1.79445
1.85111
1.88356
1.89394
1.89029
1.87591
1
1
1
1.82685
2.76242
2.80098
2.78137
2.7559
2.72801
2.69737
2.66882
2.6362
2.59728
2.5575
2.51877
2.48002
2.44022
2.39912
2.35548
2.31339
2.27708
2.24568
2.2144
2.18386
2.15329
2.12196
2.0905
2.0607
2.03377
2.00968
1.98777
1.9671
1.94643
1.92462
1.9014
1.87772
1.85455
1.83177
1.80876
1.78504
1.76027
1.7347
1.70958
1.68667
1.66657
1.6485
1.63152
1.6148
1.59793
1.58082
1.56424
1.5493
1.53669
1.52646
1.51743
1.50798
1.49685
1.48293
1.46803
1.45449
1.44315
1.43252
1.42218
1.41152
1.39941
1.386
1.37238
1.3601
1.34498
1.32781
1.3167
1.30847
1.29951
1.29012
1.27932
1.26884
1.25891
1.25675
1.26833
1.31395
1.39669
1.48483
1.54293
1.57109
1.61141
1.66396
1.71305
1.75816
1.80555
1.85312
1.88133
1.89668
1.91169
1.90704
1.89388
1.87019
1
1
1
1.81715
2.76593
2.8146
2.80343
2.79064
2.77695
2.75753
2.7333
2.70068
2.66331
2.62208
2.57793
2.53182
2.48499
2.43735
2.39142
2.34776
2.30868
2.27384
2.23883
2.20485
2.17076
2.13644
2.10327
2.07303
2.04627
2.02243
2.00054
1.9793
1.95725
1.93344
1.90825
1.8834
1.86012
1.83783
1.81538
1.79179
1.76615
1.73878
1.71199
1.6886
1.66901
1.65176
1.6358
1.62028
1.60387
1.58533
1.5664
1.55037
1.53789
1.52794
1.51901
1.50972
1.49899
1.48571
1.4705
1.45589
1.44418
1.43394
1.4238
1.4127
1.40026
1.38724
1.37292
1.35759
1.3442
1.33258
1.31957
1.30346
1.2905
1.28011
1.27084
1.26115
1.2527
1.24629
1.23672
1.23834
1.26067
1.32655
1.44889
1.58557
1.69226
1.78003
1.86035
1.92184
1.97102
1.99876
1.99246
1.96958
1.93968
1.91106
1.88922
1.86078
)
;

boundaryField
{
    inlet
    {
        type            fixedValue;
        value           uniform 1;
    }
    outlet
    {
        type            inletOutlet;
        inletValue      uniform 1;
        value           nonuniform List<scalar> 
32
(
1.92226
1.92334
1.92047
1.90788
1.8856
1.85936
1.83408
1.8134
1.79765
1.77725
1.75738
1.73929
1.72133
1.70424
1.68978
1.68057
1.66901
1.66067
1.63975
1.62358
1.60705
1.59102
1.57937
1.56313
1.55332
1.56024
1.64206
1.78632
1.85032
1.87503
1.86922
1.85974
)
;
    }
    bottom
    {
        type            symmetryPlane;
    }
    top
    {
        type            symmetryPlane;
    }
    obstacle
    {
        type            zeroGradient;
    }
    defaultFaces
    {
        type            empty;
    }
}


// ************************************************************************* //
