/*--------------------------------*- C++ -*----------------------------------*\
  =========                 |
  \\      /  F ield         | OpenFOAM: The Open Source CFD Toolbox
   \\    /   O peration     | Website:  https://openfoam.org
    \\  /    A nd           | Version:  7
     \\/     M anipulation  |
\*---------------------------------------------------------------------------*/
FoamFile
{
    version     2.0;
    format      ascii;
    class       volScalarField;
    location    "2.5";
    object      p;
}
// * * * * * * * * * * * * * * * * * * * * * * * * * * * * * * * * * * * * * //

dimensions      [1 -1 -2 0 0 0 0];

internalField   nonuniform List<scalar> 
4032
(
1
1
1
1
1
1
1
1
1
1
1
1
6.09672
10.5889
10.7648
10.9533
11.1438
11.3221
11.4907
11.647
11.7893
11.9061
11.997
12.0626
1
1
1
1
1
1
1
1
1
1
1
1
5.92429
10.5264
10.7386
10.9245
11.1146
11.2892
11.4525
11.6016
11.7359
11.8451
11.9289
11.9913
1
1
1
1
1
1
1
1
1
1
1
1
5.56988
10.4474
10.6893
10.8718
11.0617
11.2325
11.3906
11.5323
11.6579
11.7599
11.835
11.8969
1
1
1
1
1
1
1
1
1
1
1
1
5.05624
10.311
10.6226
10.8002
10.9896
11.1557
11.308
11.4416
11.5555
11.6416
11.6936
11.7318
1
1
1
1
1
1
1
1
1
1
1
1
4.40192
10.0783
10.5331
10.7017
10.8833
11.0359
11.1709
11.2828
11.3724
11.4432
11.4841
11.5392
1
1
1
1
1
1
1
1
1
1
1
1
3.64217
9.70714
10.4309
10.5902
10.7611
10.8946
11.0066
11.0979
11.1689
11.2229
11.2291
11.1874
1
1
1
1
1
1
1
1
1
1
1
1
2.79564
9.14934
10.3689
10.5065
10.649
10.7515
10.8274
10.8753
10.878
10.829
10.7468
10.6946
1
1
1
1
1
1
1
1
1
1
1
1
1.9067
8.32352
10.3116
10.3751
10.5067
10.5881
10.6262
10.618
10.5524
10.4468
10.299
10.2728
1
1
1
1
1
1
1
1
1
1
1
1
1.11473
7.24915
10.3576
10.2975
10.3322
10.3582
10.3474
10.2935
10.1411
9.8591
9.08633
7.21854
1
1
1
1
1
1
1
1
1
1
1
1
1.00144
5.75362
9.78018
9.91093
10.0078
10.0484
10.0119
9.91245
9.67251
9.20189
8.39883
6.32858
1
1
1
1
1
1
1
1
1
1
1
1
0.999982
4.03429
9.26693
9.78095
9.82809
9.822
9.73542
9.56741
9.25409
8.68166
7.83427
5.91938
1
1
1
1
1
1
1
1
1
1
1
1
0.999996
2.31625
8.37389
9.68229
9.67633
9.60984
9.4672
9.23766
8.8609
8.28891
7.35396
5.8091
1
1
1
1
1
1
1
1
1
1
1
1
0.999999
1.16986
6.86396
9.60422
9.49295
9.36969
9.18432
8.92702
8.52755
7.97378
7.04531
5.86446
1
1
1
1
1
1
1
1
1
1
1
1
1
1.0024
4.849
9.05577
9.15998
9.06506
8.89751
8.63559
8.26016
7.70815
6.8705
5.9401
1
1
1
1
1
1
1
1
1
1
1
1
1
0.999976
2.46257
8.20952
9.05013
8.9061
8.7132
8.42991
8.06853
7.50773
6.78865
6.02802
1
1
1
1
1
1
1
1
1
1
1
1
1
0.999994
1.16761
6.37174
8.86002
8.70924
8.53616
8.24517
7.88101
7.35908
6.73987
6.08957
1
1
1
1
1
1
1
1
1
1
1
1
1
0.999999
1.00204
3.68118
8.20937
8.53816
8.37041
8.11171
7.73759
7.25899
6.7113
6.13787
1
1
1
1
1
1
1
1
1
1
1
1
1
1
0.999991
1.45903
6.9224
8.57307
8.28848
8.01857
7.63448
7.17133
6.66948
6.15289
1
1
1
1
1
1
1
1
1
1
1
1
1
1
0.999998
1.01737
4.45463
8.02738
8.1043
7.86499
7.51418
7.08662
6.62755
6.15524
1
1
1
1
1
1
1
1
1
1
1
1
1
1
1
1
1.73901
6.85707
8.14723
7.79049
7.43435
7.03596
6.62402
6.18881
1
1
1
1
1
1
1
1
1
1
1
1
1
1
1
0.999999
1.04276
4.49782
7.76072
7.63859
7.33102
6.98062
6.60683
6.21052
1
1
1
1
1
1
1
1
1
1
1
1
1
1
1
1
1.00018
1.78113
6.43588
7.65587
7.30298
6.96671
6.60505
6.23653
1
1
1
1
1
1
1
1
1
1
1
1
1
1
1
1
1
1.04609
3.87032
7.26585
7.21931
6.91353
6.58392
6.24452
1
1
1
1
1
1
1
1
1
1
1
1
1
1
1
1
1
1.00032
1.55229
5.67658
7.2666
6.91416
6.60456
6.28067
1
1
1
1
1
1
1
1
1
1
1
1
1
1
1
1
1
1
1.02412
2.81984
6.4276
6.88911
6.61194
6.30704
1
1
1
1
1
1
1
1
1
1
1
1
1
1
1
1
1
1
1.00019
1.23499
4.40713
6.81423
6.66769
6.37215
1
1
1
1
1
1
1
1
1
1
1
1
1
1
1
1
1
1
1
1.00555
1.86614
5.49752
6.64999
6.40901
1
1
1
1
1
1
1
1
1
1
1
1
1
1
1
1
1
1
1
1.00003
1.05759
2.84738
5.96243
6.44885
1
1
1
1
1
1
1
1
1
1
1
1
1
1
1
1
1
1
1
1
1.00076
1.24374
3.92816
6.15275
1
1
1
1
1
1
1
1
1
1
1
1
1
1
1
1
1
1
1
1
1
1.00669
1.65526
4.69589
1
1
1
1
1
1
1
1
1
1
1
1
1
1
1
1
1
1
1
1
1
1.00005
1.03611
2.20989
1
1
1
1
1
1
1
1
1
1
1
1
1
1
1
1
1
1
1
1
1
1
1.00045
1.11335
1
1
1
1
1
1
1
1
1
1
1
1
1
1
1
1
1
1
1
1
1
1
1
1.00225
1
1
1
1
1
1
1
1
1
1
1
1
1
1
1
1
1
1
1
1
1
1
1
1.00001
1
1
1
1
1
1
1
1
1
1
1
1
1
1
1
1
1
1
1
1
1
1
1
1
1
1
1
1
1
1
1
1
1
1
1
1
1
1
1
1
1
1
1
1
1
1
1
1
1
1
1
1
1
1
1
1
1
1
1
1
1
1
1
1
1
1
1
1
1
1
1
1
1
1
1
1
1
1
1
1
1
1
1
1
1
1
1
1
1
1
1
1
1
1
1
1
1
1
1
1
1
1
1
1
1
1
1
1
1
1
1
1
1
1
1
1
1
1
1
1
1
1
1
1
1
1
1
1
1
1
1
1
1
1
1
1
1
1
1
1
1
1
1
1
1.62278
0.442575
0.1304
0.119654
0.168536
0.276101
0.393092
0.52669
0.714958
0.826821
0.900464
0.944155
1.02286
1.14336
1.23794
1.2622
1.28206
1.2656
1.23246
1.23121
1.2702
1.31697
1.327
1.31889
1.28301
1.26438
1.26951
1.30253
1.34689
1.35742
1.3527
1.32906
1.30364
1.29588
1.29825
1.3452
1.79152
4.66666
6.98283
6.88936
6.70922
6.55111
6.31441
6.07996
5.86086
5.69597
5.59228
5.53848
5.4573
5.3246
5.1975
5.08382
4.98761
4.9042
4.8001
4.68789
4.56516
4.45868
4.37685
4.30914
4.26669
4.21198
4.13418
4.05005
3.94424
3.82024
3.72091
3.65638
3.60492
3.56444
3.53477
3.49399
3.44442
3.37879
3.27433
3.15851
3.09159
3.05196
3.01754
2.98883
2.96939
2.94413
2.90859
2.8562
2.75592
2.63447
2.57081
2.53995
2.51449
2.4964
2.49233
2.47976
2.45131
2.40845
2.32756
2.20551
2.70928
1.4976
0.935368
0.589193
0.546497
0.534847
0.520341
0.530437
0.545544
0.57418
0.621656
0.6933
0.787669
0.909326
1.03082
1.10669
1.15106
1.18132
1.19302
1.20955
1.23831
1.27324
1.29418
1.30418
1.29998
1.2854
1.28246
1.29437
1.31127
1.32841
1.33826
1.33651
1.32576
1.30562
1.33225
1.61907
2.31173
3.70084
5.95096
6.46287
6.48797
6.34573
6.12223
5.95362
5.84551
5.7242
5.61089
5.50101
5.3851
5.27121
5.16704
5.07186
4.98718
4.903
4.80091
4.69442
4.5779
4.46192
4.3702
4.29277
4.22985
4.16818
4.10333
4.03369
3.95212
3.85899
3.76152
3.67509
3.6116
3.56194
3.51528
3.47168
3.42591
3.36992
3.28962
3.1902
3.10573
3.05537
3.02015
2.98869
2.96047
2.92969
2.89218
2.84233
2.7672
2.67094
2.58865
2.54344
2.51733
2.49643
2.47892
2.46002
2.4334
2.39637
2.33937
2.23195
3.59948
2.37097
1.73751
1.29573
0.995739
0.808191
0.68535
0.637606
0.616075
0.599936
0.610523
0.662663
0.725194
0.77708
0.853587
0.941317
1.01184
1.09486
1.17656
1.22625
1.24744
1.25525
1.26511
1.28403
1.31541
1.33145
1.33729
1.32913
1.30158
1.29048
1.29145
1.30623
1.32583
1.38561
1.64075
2.42802
3.00385
3.15942
4.14551
5.58585
6.4449
6.38883
6.22983
6.05033
5.86987
5.76566
5.65876
5.51527
5.35726
5.24173
5.14881
5.06727
4.99286
4.90456
4.81081
4.71385
4.60674
4.49783
4.39872
4.30204
4.20713
4.12188
4.044
3.97478
3.91789
3.86316
3.80421
3.73059
3.64527
3.56762
3.50579
3.45016
3.39183
3.33017
3.27335
3.21382
3.14284
3.07116
3.02186
2.98475
2.94765
2.90764
2.86049
2.80522
2.75118
2.69884
2.63923
2.57159
2.51925
2.48942
2.46384
2.43547
2.40196
2.36206
2.32206
2.25513
4.22785
3.1344
2.37461
1.88918
1.56553
1.30366
1.02906
0.877433
0.859995
0.833426
0.784295
0.73706
0.711735
0.704558
0.722155
0.771026
0.844072
0.94031
1.04879
1.12229
1.15189
1.1685
1.18883
1.22373
1.28647
1.34809
1.35829
1.349
1.31425
1.28707
1.27973
1.2873
1.3428
1.6606
2.40754
3.05961
3.2926
3.20608
3.26903
3.91707
5.17761
5.83699
6.10746
6.10206
5.91425
5.76311
5.61674
5.47822
5.3361
5.20643
5.11799
5.04168
4.96584
4.87836
4.79326
4.70045
4.59568
4.49079
4.39337
4.29878
4.20304
4.10974
4.0263
3.95984
3.90603
3.85809
3.80843
3.75084
3.6731
3.57789
3.49834
3.4338
3.37074
3.31413
3.26782
3.22268
3.16831
3.09489
3.01942
2.96853
2.92689
2.88024
2.82533
2.77432
2.73922
2.70881
2.67256
2.61754
2.54396
2.48536
2.44755
2.41225
2.3729
2.33128
2.30173
2.26098
4.68261
3.75507
3.02771
2.39572
2.01673
1.77335
1.51296
1.22298
1.052
1.00553
0.96134
0.906993
0.851773
0.777071
0.7337
0.734855
0.748115
0.78913
0.866185
0.950044
1.0021
1.04976
1.10053
1.14935
1.2185
1.28553
1.31065
1.31539
1.31117
1.2919
1.28906
1.31877
1.58593
2.40917
3.03762
3.29933
3.33203
3.28086
3.20603
3.20025
3.60839
4.5832
5.44863
5.90685
5.91189
5.80909
5.63814
5.48198
5.34093
5.19983
5.08362
5.00229
4.92172
4.83814
4.76066
4.6822
4.59202
4.49235
4.388
4.28144
4.17534
4.08176
4.01094
3.95508
3.90558
3.85868
3.80967
3.75522
3.68297
3.57792
3.47068
3.40181
3.3542
3.31448
3.27616
3.23639
3.18997
3.12285
3.02695
2.9397
2.88192
2.83459
2.79628
2.76827
2.74653
2.7216
2.69094
2.64903
2.57912
2.48799
2.42156
2.37817
2.34149
2.31423
2.29748
2.26335
4.98368
4.16183
3.53254
2.93931
2.42734
2.11098
1.87049
1.63658
1.43716
1.23472
1.11679
1.08745
1.05436
0.982775
0.887276
0.813886
0.787752
0.789746
0.79959
0.815705
0.841803
0.872861
0.934934
1.00967
1.08311
1.15599
1.22407
1.27358
1.2763
1.27325
1.31898
1.58405
2.39753
3.06478
3.2566
3.3252
3.32751
3.26135
3.18547
3.10855
3.09167
3.30349
4.05227
5.14539
5.62408
5.66466
5.63462
5.51072
5.38655
5.23532
5.06836
4.93839
4.85061
4.78058
4.72045
4.65778
4.58062
4.49631
4.3998
4.28955
4.17813
4.08546
4.01522
3.95515
3.89851
3.84385
3.79129
3.73722
3.67131
3.57697
3.46217
3.38669
3.34463
3.30795
3.2735
3.2366
3.19552
3.13675
3.03594
2.91469
2.8406
2.80228
2.77429
2.75438
2.74603
2.72927
2.70233
2.67054
2.61516
2.5055
2.3931
2.34245
2.31847
2.30048
2.29445
2.26821
5.23965
4.50165
3.89462
3.34163
2.8626
2.49831
2.14909
1.90021
1.74945
1.58058
1.38533
1.23083
1.17721
1.13138
1.06305
0.987994
0.917132
0.841662
0.814847
0.816879
0.827888
0.854389
0.867751
0.883022
0.913706
0.965222
1.03485
1.12581
1.18626
1.25064
1.61855
2.34227
3.14051
3.30645
3.35043
3.34006
3.30214
3.21943
3.14998
3.08721
3.04452
3.02111
3.12191
3.68041
4.64068
5.24355
5.44226
5.47919
5.42709
5.29176
5.11601
4.94165
4.80011
4.72238
4.67109
4.63086
4.56871
4.49564
4.40939
4.3049
4.19244
4.09331
4.01907
3.95733
3.89527
3.82956
3.76281
3.69853
3.63375
3.55715
3.46384
3.38307
3.33384
3.29494
3.25812
3.2209
3.1797
3.12396
3.03076
2.90303
2.8244
2.79316
2.76707
2.74507
2.73561
2.72556
2.69854
2.66903
2.62166
2.52235
2.39478
2.33239
2.3097
2.2903
2.27986
2.25916
5.40629
4.75094
4.19045
3.65785
3.18858
2.83451
2.49316
2.16746
1.96268
1.82429
1.67102
1.50929
1.35137
1.24564
1.20723
1.167
1.10871
1.01604
0.911979
0.880445
0.875504
0.870678
0.870494
0.873624
0.86376
0.859174
0.876458
0.933673
1.01115
1.34623
2.17786
2.84234
3.23464
3.26807
3.25814
3.22169
3.20509
3.16989
3.13613
3.09008
3.04189
2.9988
2.95205
2.98219
3.28972
4.0498
4.78947
5.16399
5.32644
5.29789
5.14806
4.99895
4.82644
4.69959
4.63142
4.57689
4.53428
4.47825
4.40834
4.32418
4.21781
4.09801
4.0056
3.94482
3.88776
3.82654
3.75788
3.68099
3.60077
3.52435
3.45282
3.38374
3.32256
3.27299
3.23035
3.18961
3.14739
3.09661
3.0257
2.93025
2.83922
2.79164
2.76467
2.7407
2.72262
2.70713
2.68294
2.64842
2.59865
2.52501
2.43711
2.35674
2.30887
2.28389
2.27096
2.2521
5.53151
4.94908
4.42535
3.92435
3.47734
3.11072
2.7832
2.47874
2.23132
2.01647
1.85907
1.74423
1.61669
1.46632
1.32141
1.26534
1.22978
1.17321
1.09724
1.01965
0.962779
0.909049
0.885238
0.889545
0.886358
0.877195
0.869977
0.882984
1.11197
1.85909
2.43201
2.74318
2.97213
2.9941
2.98956
3.01213
3.05394
3.09051
3.08239
3.05363
3.02204
2.9748
2.93051
2.89077
2.84427
2.97277
3.50126
4.26996
4.87567
5.08644
5.10893
5.03503
4.91573
4.75333
4.5971
4.521
4.46996
4.43729
4.39243
4.32604
4.23995
4.1109
3.97763
3.90969
3.86082
3.81046
3.75501
3.688
3.60604
3.51454
3.42922
3.3636
3.30824
3.25585
3.2068
3.15958
3.11144
3.06312
3.01628
2.96316
2.88922
2.80714
2.76425
2.74002
2.71463
2.68014
2.6353
2.58756
2.54454
2.50847
2.46796
2.41353
2.35106
2.2962
2.26733
2.23062
5.61181
5.0917
4.60335
4.1433
3.7315
3.35871
3.01346
2.73393
2.50595
2.27828
2.04493
1.89198
1.79474
1.67936
1.55043
1.42998
1.31353
1.26562
1.23836
1.18545
1.11908
1.03797
0.957928
0.941817
0.933636
0.911105
0.924095
1.0938
1.7228
2.3175
2.50708
2.53023
2.5476
2.57235
2.6168
2.68285
2.74247
2.814
2.88806
2.91525
2.91009
2.92356
2.90541
2.86813
2.80871
2.72795
2.76455
3.0496
3.68697
4.38317
4.7878
4.93267
4.95325
4.82861
4.62323
4.4722
4.40206
4.36933
4.35203
4.30507
4.24254
4.13494
3.97461
3.86229
3.80945
3.76806
3.72865
3.68124
3.6244
3.54625
3.44051
3.33402
3.2663
3.22282
3.18038
3.13484
3.08769
3.0454
3.00973
2.97388
2.92775
2.8591
2.77728
2.71242
2.66742
2.63027
2.59126
2.54942
2.51265
2.48768
2.46627
2.4387
2.39435
2.33071
2.2748
2.21414
5.67612
5.21316
4.7568
4.32989
3.94738
3.58918
3.25154
2.95641
2.71046
2.49847
2.29043
2.11341
1.94453
1.80039
1.71265
1.62355
1.50679
1.37893
1.32059
1.28736
1.24478
1.18891
1.10641
1.02509
0.988986
0.983212
1.12484
1.7365
2.42733
2.58802
2.54543
2.48621
2.43812
2.39891
2.38089
2.36531
2.35554
2.39391
2.45774
2.54684
2.64035
2.72796
2.76451
2.76271
2.73155
2.68194
2.63674
2.61063
2.72037
3.1568
3.86273
4.45389
4.7415
4.76234
4.65867
4.46707
4.36525
4.30673
4.28148
4.25656
4.21227
4.13932
4.0118
3.85567
3.76354
3.71778
3.6805
3.64816
3.60756
3.55695
3.47837
3.35628
3.23862
3.17702
3.14032
3.10394
3.06713
3.03473
3.00474
2.97408
2.93933
2.88817
2.8014
2.70067
2.6336
2.58877
2.55151
2.52072
2.49786
2.47805
2.45693
2.43342
2.40201
2.35308
2.29132
2.20352
5.75065
5.318
4.88494
4.49309
4.12693
3.76962
3.44795
3.1774
2.91946
2.66967
2.47248
2.30542
2.13857
1.97568
1.83395
1.74721
1.65635
1.55349
1.46576
1.37837
1.31848
1.28949
1.23856
1.1595
1.12984
1.2731
1.866
2.61152
2.7872
2.70566
2.60708
2.5228
2.46352
2.42537
2.38631
2.34805
2.30698
2.25572
2.21798
2.22641
2.27138
2.33748
2.40891
2.48126
2.52963
2.54605
2.5322
2.49126
2.4813
2.52868
2.77563
3.32556
3.97169
4.41261
4.48319
4.45194
4.35619
4.26653
4.21849
4.19213
4.15551
4.10257
4.03269
3.91792
3.76535
3.66441
3.61726
3.58304
3.55779
3.52174
3.47531
3.40102
3.27587
3.15243
3.09549
3.06452
3.03736
3.01161
2.98584
2.95806
2.92603
2.88307
2.81189
2.70739
2.61159
2.55669
2.52792
2.50755
2.48774
2.46676
2.44447
2.42066
2.3926
2.35256
2.29419
2.19745
5.80048
5.38888
4.9956
4.62971
4.27439
3.93258
3.63769
3.35751
3.09507
2.85137
2.66077
2.46767
2.29513
2.13793
2.00955
1.89084
1.77245
1.67745
1.61003
1.53295
1.43445
1.35104
1.31674
1.29757
1.45605
2.11931
2.89111
3.06459
2.96286
2.84014
2.73264
2.65379
2.57933
2.51027
2.44737
2.38936
2.32517
2.24122
2.18321
2.15716
2.1382
2.12105
2.11524
2.13416
2.17248
2.21787
2.24796
2.2905
2.31096
2.31845
2.34789
2.47227
2.81787
3.37542
3.86
4.18676
4.24123
4.19697
4.15544
4.12012
4.10239
4.06729
4.01755
3.94925
3.82052
3.65325
3.56153
3.52058
3.48868
3.46842
3.43754
3.39543
3.32278
3.189
3.07037
3.02704
2.99981
2.97449
2.94918
2.92229
2.89238
2.8546
2.79723
2.7075
2.60856
2.54652
2.51916
2.50007
2.48029
2.45939
2.43767
2.41124
2.3724
2.31573
2.26448
2.18455
5.85431
5.46587
5.10335
4.75449
4.4062
4.08788
3.80322
3.52811
3.25539
3.02847
2.82788
2.63653
2.45245
2.29451
2.16559
2.03848
1.91846
1.80118
1.71333
1.65184
1.56696
1.47174
1.43692
1.60382
2.32393
3.18272
3.36754
3.2626
3.13377
3.01988
2.89781
2.77999
2.68799
2.61625
2.5541
2.49195
2.42486
2.33413
2.23366
2.16033
2.1176
2.08579
2.0629
2.04527
2.02604
1.9993
1.97544
1.98454
2.00073
2.02765
2.07256
2.10161
2.16915
2.36911
2.7418
3.25721
3.74867
4.02279
4.0023
4.02063
4.04975
4.03412
3.98629
3.92236
3.82706
3.68784
3.54804
3.47045
3.4332
3.40729
3.38877
3.3591
3.31729
3.23666
3.09974
2.99664
2.95806
2.93167
2.9061
2.8799
2.85262
2.81978
2.77223
2.69925
2.614
2.55248
2.51545
2.48851
2.46548
2.44416
2.42344
2.39742
2.3567
2.29294
2.21759
2.13865
5.89232
5.54329
5.20234
4.85943
4.52787
4.23745
3.95292
3.67436
3.41338
3.19955
2.98648
2.79191
2.60107
2.45564
2.30889
2.17581
2.05258
1.94735
1.84364
1.73806
1.66097
1.62361
1.83161
2.62927
3.49691
3.6753
3.56001
3.4224
3.30551
3.17878
3.03679
2.92203
2.83533
2.76073
2.69157
2.62181
2.5448
2.44752
2.33408
2.23674
2.16918
2.12058
2.07545
2.03151
1.99129
1.95423
1.92403
1.8851
1.83474
1.80899
1.81571
1.82983
1.83783
1.87107
1.96377
2.16868
2.58033
3.14155
3.56919
3.79142
3.87922
3.92857
3.92592
3.87873
3.79017
3.69277
3.5871
3.47372
3.3996
3.36016
3.332
3.31314
3.28191
3.22961
3.13619
3.00631
2.92183
2.88917
2.86269
2.83669
2.81198
2.7857
2.75041
2.69598
2.62129
2.55156
2.50619
2.47573
2.45004
2.42451
2.39775
2.36756
2.32956
2.26707
2.18492
2.11408
5.94572
5.62197
5.29881
4.9642
4.6541
4.37054
4.09289
3.80819
3.57207
3.35089
3.14133
2.93065
2.75655
2.60315
2.44903
2.31341
2.18119
2.07674
1.9621
1.85562
1.81205
2.04732
2.95902
3.87286
4.00669
3.87754
3.72135
3.58984
3.46391
3.31701
3.17492
3.06677
2.97809
2.89552
2.81562
2.73479
2.64595
2.54082
2.4221
2.32321
2.25457
2.19666
2.14301
2.09069
2.03945
1.98385
1.9227
1.86195
1.80403
1.77176
1.75383
1.72487
1.69916
1.69192
1.68028
1.68608
1.75557
1.96211
2.40939
2.92755
3.4482
3.61092
3.71866
3.74149
3.72334
3.68284
3.59695
3.50512
3.4242
3.34665
3.28384
3.24565
3.21231
3.17567
3.12394
3.03887
2.92887
2.85925
2.82527
2.79723
2.77091
2.74669
2.72222
2.69219
2.63975
2.56061
2.49179
2.45193
2.42483
2.39917
2.36942
2.33338
2.29337
2.2393
2.1767
2.11236
5.998
5.6887
5.37292
5.06217
4.77389
4.48679
4.20011
3.93844
3.71437
3.48913
3.27163
3.0627
2.90576
2.73699
2.58612
2.43412
2.31561
2.18357
2.06784
2.02639
2.32148
3.34122
4.28359
4.36058
4.20399
4.02897
3.88643
3.75538
3.60868
3.45543
3.319
3.20665
3.10827
3.01713
2.93008
2.84464
2.756
2.65589
2.53842
2.42341
2.33727
2.27085
2.21218
2.15591
2.09902
2.03787
1.97095
1.89286
1.81787
1.76467
1.72785
1.69247
1.66906
1.65658
1.62971
1.60306
1.57547
1.55956
1.60526
1.78814
2.21251
2.74422
3.22303
3.49627
3.52496
3.54882
3.54663
3.51522
3.44459
3.35277
3.26552
3.20151
3.15338
3.11138
3.07598
3.03039
2.96045
2.87237
2.80475
2.76791
2.74431
2.72932
2.71736
2.69145
2.64198
2.57382
2.49389
2.42998
2.39408
2.37182
2.34192
2.30032
2.25842
2.21774
2.18546
2.12802
6.07447
5.76875
5.45204
5.15373
4.87257
4.59364
4.30955
4.06849
3.83724
3.61861
3.39236
3.21081
3.04007
2.8724
2.70882
2.56256
2.4263
2.29433
2.27627
2.64335
3.79315
4.72613
4.78084
4.59425
4.38539
4.21796
4.06867
3.91552
3.75489
3.59655
3.45429
3.33296
3.2273
3.13056
3.03751
2.94497
2.84979
2.74606
2.62836
2.50939
2.41653
2.34817
2.28914
2.23086
2.17025
2.10751
2.03944
1.95831
1.87334
1.80453
1.75301
1.71331
1.68332
1.64871
1.60924
1.5754
1.54307
1.51153
1.47943
1.46043
1.4938
1.66248
2.0122
2.56695
2.98527
3.31779
3.40672
3.38619
3.37063
3.34192
3.26628
3.19689
3.13119
3.07149
3.03052
2.99916
2.95601
2.88201
2.815
2.77197
2.73625
2.69887
2.65752
2.62813
2.60509
2.5634
2.50282
2.44098
2.37719
2.32434
2.29059
2.26103
2.2306
2.20285
2.18215
2.13419
6.10613
5.80489
5.50362
5.22357
4.95127
4.6697
4.41106
4.18826
3.9607
3.73136
3.51641
3.34705
3.16473
2.99914
2.82665
2.67059
2.52935
2.52628
3.03673
4.32517
5.24991
5.1775
4.92838
4.70243
4.54593
4.39922
4.2423
4.07806
3.90841
3.73354
3.57142
3.43952
3.33114
3.23415
3.14134
3.04877
2.95212
2.84419
2.71897
2.5895
2.48838
2.41805
2.35886
2.30104
2.24126
2.17681
2.10259
2.01533
1.92506
1.85466
1.80272
1.76061
1.72039
1.67746
1.63566
1.59392
1.54813
1.49486
1.4488
1.42252
1.40188
1.38947
1.41383
1.54844
1.87299
2.39021
2.82542
3.07481
3.23887
3.26082
3.24425
3.21233
3.14784
3.08636
3.02432
2.95179
2.88402
2.84931
2.82081
2.78291
2.73118
2.67806
2.63354
2.59761
2.55603
2.52092
2.49345
2.44811
2.37792
2.30539
2.25506
2.22629
2.20831
2.19196
2.17798
2.14366
6.16771
5.85628
5.57171
5.30443
5.04145
4.77017
4.5271
4.3079
4.07853
3.83629
3.6502
3.47377
3.29526
3.11387
2.93375
2.77148
2.82321
3.47298
4.98559
5.81049
5.69914
5.39842
5.09076
4.8732
4.71891
4.56731
4.40773
4.24244
4.06535
3.87228
3.68908
3.54622
3.4327
3.33094
3.23359
3.13689
3.03687
2.92732
2.80354
2.67414
2.5634
2.48066
2.41346
2.35189
2.29204
2.23071
2.16184
2.08019
1.99079
1.90846
1.84242
1.79435
1.75553
1.71899
1.68134
1.63881
1.59053
1.53048
1.47076
1.41848
1.38216
1.35561
1.34293
1.33321
1.352
1.45548
1.75147
2.1561
2.59786
2.85074
3.04848
3.11026
3.12165
3.10775
3.03481
2.94241
2.87946
2.82197
2.75866
2.71683
2.69678
2.66979
2.62904
2.57503
2.53001
2.49296
2.44304
2.38971
2.34114
2.2933
2.25015
2.21752
2.19247
2.17305
2.15716
2.11138
6.23205
5.95265
5.65416
5.39072
5.13346
4.86881
4.62981
4.4117
4.1851
3.95239
3.76917
3.57694
3.40285
3.21438
3.02725
3.10887
4.03104
5.59071
6.41049
6.21081
5.83881
5.52967
5.28598
5.08472
4.90232
4.72609
4.55117
4.37551
4.19284
4.00073
3.81561
3.66045
3.53341
3.42056
3.3136
3.20853
3.10238
2.99176
2.87529
2.75755
2.64921
2.55794
2.47991
2.40766
2.33735
2.26858
2.19993
2.12792
2.05291
1.98102
1.91408
1.85024
1.79143
1.7431
1.70429
1.66769
1.62984
1.58477
1.5324
1.4723
1.41523
1.36633
1.33685
1.31329
1.29902
1.2858
1.2898
1.3502
1.56648
1.93557
2.39924
2.67768
2.89242
2.97184
2.9635
2.95173
2.9096
2.8221
2.74693
2.69841
2.6543
2.60714
2.56232
2.53987
2.51695
2.47462
2.41723
2.36454
2.31901
2.27703
2.24261
2.21298
2.19016
2.1715
2.14885
2.08782
6.13203
6.03768
5.75103
5.47696
5.21561
4.96184
4.73517
4.51724
4.27459
4.0627
3.87803
3.69604
3.50318
3.3027
3.44024
4.60328
6.27185
6.98243
6.82663
6.40628
6.01766
5.70414
5.46242
5.26439
5.06725
4.87351
4.68321
4.49468
4.30858
4.12699
3.9515
3.78664
3.63894
3.50775
3.38675
3.27099
3.15826
3.04739
2.93779
2.83002
2.72601
2.62988
2.54301
2.46194
2.38236
2.30155
2.22029
2.14319
2.07529
2.01673
1.96236
1.90753
1.8518
1.79691
1.74175
1.68696
1.63537
1.59372
1.5558
1.50976
1.45766
1.41002
1.37137
1.33468
1.30341
1.27222
1.24914
1.22113
1.20874
1.25048
1.43217
1.79347
2.24541
2.54567
2.69876
2.8068
2.80402
2.79752
2.77275
2.70538
2.63641
2.58658
2.54265
2.493
2.4429
2.41041
2.38666
2.35496
2.31424
2.27399
2.24484
2.21839
2.18459
2.13446
2.09235
2.04867
5.16668
5.99987
5.84166
5.56726
5.30485
5.05603
4.83162
4.61057
4.37969
4.17457
3.97615
3.79927
3.61124
3.83646
5.3085
7.01769
7.32391
7.19634
6.87005
6.56124
6.24796
5.93282
5.6498
5.41018
5.20087
5.00015
4.80202
4.6078
4.4206
4.2407
4.06495
3.89356
3.73374
3.59043
3.4603
3.33769
3.21965
3.10574
2.99581
2.88946
2.78622
2.68763
2.59581
2.51014
2.42858
2.34889
2.26996
2.19239
2.11727
2.04657
1.98318
1.92843
1.8801
1.8329
1.78333
1.73199
1.68054
1.63135
1.57738
1.51548
1.46423
1.43227
1.40521
1.37591
1.3406
1.2994
1.25565
1.21301
1.18341
1.15534
1.15081
1.19098
1.33423
1.65684
2.05667
2.4229
2.52509
2.61733
2.63926
2.6433
2.63417
2.61279
2.55717
2.48179
2.42236
2.3792
2.33641
2.3
2.28027
2.27183
2.25885
2.23268
2.18455
2.1209
2.06956
2.00909
2.81617
5.40617
5.87599
5.68219
5.40072
5.14686
4.93144
4.70526
4.4877
4.25899
4.08643
3.93647
4.31814
6.01512
7.95159
8.20224
7.75181
7.25614
6.94916
6.72708
6.46116
6.1584
5.85453
5.58006
5.34494
5.13026
4.92444
4.72627
4.53574
4.34989
4.16524
3.9839
3.81454
3.66361
3.52887
3.40408
3.28443
3.16794
3.05365
2.94182
2.83374
2.73126
2.63576
2.54695
2.46426
2.38645
2.31124
2.23671
2.16226
2.08917
2.01964
1.95396
1.89167
1.83462
1.78824
1.75095
1.71238
1.66642
1.61456
1.56153
1.50862
1.4558
1.40819
1.37508
1.35359
1.33091
1.29445
1.25242
1.2077
1.16058
1.13338
1.1211
1.11433
1.14466
1.2602
1.52968
1.88131
2.24433
2.36792
2.45068
2.51004
2.51592
2.5076
2.4809
2.43249
2.36519
2.31671
2.29377
2.27344
2.24387
2.21068
2.18161
2.15531
2.11424
2.05965
1.99359
1.2548
3.38615
5.4718
5.74233
5.52766
5.25023
5.01514
4.8066
4.56584
4.3705
4.27884
4.85851
6.88539
8.6376
8.68759
8.34966
7.88717
7.46634
7.14416
6.88533
6.61632
6.33228
6.04204
5.75624
5.49231
5.25512
5.03816
4.83508
4.64006
4.44741
4.25505
4.06677
3.89089
3.73304
3.59211
3.46316
3.34103
3.22188
3.10401
2.98751
2.87461
2.76828
2.6704
2.58074
2.49838
2.42066
2.34415
2.26694
2.18954
2.1153
2.04701
1.98465
1.92834
1.87835
1.83098
1.77857
1.71643
1.65153
1.60316
1.57238
1.53834
1.49253
1.44618
1.4069
1.37281
1.34634
1.32278
1.2875
1.23854
1.18769
1.14912
1.12221
1.1041
1.08993
1.07555
1.09034
1.18128
1.39064
1.70414
2.01892
2.31137
2.36274
2.37015
2.36426
2.34628
2.34378
2.3414
2.32672
2.28949
2.24001
2.19501
2.157
2.1114
2.06465
2.0379
1.9956
1.00794
1.45792
3.85216
5.44442
5.59188
5.38167
5.13502
4.88172
4.65332
4.67622
5.63016
7.88325
9.36395
9.52655
8.97205
8.44078
8.03373
7.68925
7.36214
7.05207
6.7569
6.46911
6.18229
5.89835
5.62791
5.37688
5.14487
4.92847
4.72326
4.52496
4.33176
4.14527
3.96902
3.80607
3.65674
3.51841
3.38839
3.26484
3.14616
3.03081
2.91868
2.81176
2.71238
2.62121
2.53705
2.45651
2.37612
2.29442
2.21136
2.12927
2.0546
1.99319
1.9431
1.8985
1.85443
1.8048
1.74444
1.68019
1.62401
1.57448
1.53002
1.49458
1.46696
1.43991
1.40731
1.3682
1.32181
1.27465
1.24051
1.21528
1.18451
1.14955
1.11254
1.08728
1.06746
1.0533
1.03558
1.03472
1.09915
1.26626
1.57897
1.89382
2.18476
2.26454
2.251
2.25497
2.2462
2.24429
2.259
2.24346
2.20614
2.14904
2.09332
2.05204
2.01039
1.94568
1.00006
1.02107
1.71026
4.14967
5.39967
5.46225
5.27632
4.96171
5.1378
6.57191
9.1495
10.1171
9.96135
9.68748
9.22722
8.70279
8.26253
7.8778
7.52661
7.20023
6.89372
6.59265
6.29715
6.01035
5.73563
5.48079
5.2428
5.01691
4.80118
4.59655
4.4033
4.22014
4.04555
3.87961
3.72352
3.57695
3.43816
3.30626
3.18263
3.06899
2.9638
2.86287
2.76384
2.66776
2.5765
2.48908
2.40281
2.31622
2.23019
2.14841
2.07514
2.01291
1.96106
1.91406
1.86325
1.80626
1.7585
1.71989
1.66815
1.60808
1.56136
1.52511
1.48888
1.45191
1.41169
1.3653
1.32367
1.29343
1.26076
1.21775
1.18043
1.16023
1.14598
1.12921
1.10281
1.06947
1.03259
1.00092
0.974329
0.976755
1.0322
1.19068
1.48939
1.76789
2.0311
2.17108
2.17153
2.16822
2.15835
2.14477
2.13771
2.13241
2.10747
2.06443
2.00614
1.9281
1
1.00023
1.04559
1.95341
4.38621
5.29828
5.28844
5.83152
7.78065
10.1829
11.0583
10.7538
10.1361
9.75275
9.4117
8.948
8.4823
8.06785
7.69362
7.33297
6.98907
6.68406
6.39881
6.11606
5.83048
5.5628
5.31827
5.08574
4.86262
4.65061
4.45228
4.26839
4.09689
3.9338
3.7764
3.62505
3.48198
3.3486
3.22444
3.10826
2.99779
2.89189
2.79034
2.69358
2.60245
2.51469
2.42726
2.33955
2.25268
2.16935
2.09439
2.03143
1.97771
1.92692
1.87635
1.82854
1.78163
1.72081
1.65136
1.58808
1.54173
1.51931
1.50244
1.47817
1.44005
1.39091
1.33618
1.2833
1.24201
1.21346
1.19537
1.17565
1.1483
1.11971
1.09246
1.06479
1.02988
0.992475
0.965183
0.948989
0.943716
0.950009
0.996249
1.14059
1.40004
1.65673
1.8729
2.06942
2.08213
2.06455
2.06787
2.05616
2.04041
2.03072
2.01147
1.93833
1
1
1.00064
1.08168
2.24513
4.07622
6.0672
9.44903
11.1058
11.6072
11.5313
11.0204
10.4499
9.97182
9.617
9.19619
8.74009
8.30779
7.92007
7.55751
7.19772
6.83332
6.49309
6.20398
5.96238
5.7269
5.48316
5.24253
5.01171
4.79561
4.59576
4.40981
4.23318
4.06146
3.89373
3.73327
3.58237
3.4433
3.31585
3.19495
3.07766
2.96573
2.86207
2.76734
2.6777
2.59022
2.50231
2.41271
2.32215
2.23405
2.15462
2.08778
2.03119
1.97984
1.92976
1.87646
1.81225
1.73374
1.65632
1.59836
1.56097
1.53105
1.49833
1.46323
1.42783
1.38856
1.34038
1.29041
1.25088
1.22445
1.20246
1.17831
1.15027
1.12214
1.0959
1.06927
1.03752
0.997534
0.963578
0.944319
0.93199
0.924704
0.916709
0.913527
0.948389
1.06473
1.25241
1.53677
1.7305
1.89147
2.00178
2.01832
2.00563
1.97753
1.95072
1.89778
1
1
1
1.00181
1.1244
2.5763
9.37974
12.9512
12.4253
11.8302
11.5861
11.134
10.6185
10.1356
9.7256
9.30254
8.86395
8.41646
7.99972
7.61618
7.24854
6.89983
6.57117
6.26442
5.97243
5.69701
5.43974
5.19623
4.96669
4.75169
4.55018
4.3597
4.17753
4.00244
3.83597
3.68139
3.54112
3.41242
3.28851
3.16525
3.04321
2.92641
2.82016
2.72613
2.64138
2.55937
2.47438
2.38393
2.28961
2.19679
2.11498
2.0487
1.99423
1.94565
1.8974
1.84458
1.79041
1.74733
1.70785
1.66072
1.6112
1.56383
1.52164
1.48333
1.44643
1.4108
1.37153
1.33046
1.29332
1.26144
1.23272
1.20659
1.18101
1.15476
1.12695
1.09139
1.04894
1.00377
0.967939
0.94656
0.932771
0.920981
0.908505
0.898629
0.886711
0.877762
0.894925
0.973132
1.14587
1.38094
1.61365
1.80014
1.91975
1.93976
1.92581
1.86842
1
1
1
1.00001
1.00304
3.13393
11.3778
12.7786
12.2574
11.7955
11.4854
11.089
10.6121
10.1333
9.71671
9.31976
8.92335
8.48443
8.05457
7.65243
7.27865
6.93336
6.61159
6.30699
6.01446
5.73412
5.46818
5.21923
4.98786
4.77203
4.56797
4.37217
4.18282
4.00138
3.8323
3.67953
3.54321
3.41768
3.29599
3.17336
3.04887
2.92685
2.8154
2.71977
2.6377
2.56098
2.48101
2.39245
2.29524
2.1961
2.10786
2.03899
1.98523
1.93818
1.89189
1.84508
1.79966
1.75041
1.69292
1.63366
1.57689
1.52819
1.48871
1.45503
1.42217
1.38642
1.34897
1.31178
1.27473
1.23984
1.20903
1.18336
1.16078
1.13742
1.11287
1.09277
1.06585
1.02983
0.998133
0.976642
0.960051
0.944268
0.927893
0.909516
0.889627
0.871698
0.849104
0.833884
0.848326
0.913528
1.08241
1.31337
1.53122
1.73182
1.8137
2.00533
1
1
1
1
1.00004
4.18592
11.3422
12.2785
12.3125
12.196
11.8822
11.4461
10.9138
10.3888
9.91304
9.50061
9.08363
8.61467
8.14156
7.7012
7.30663
6.95188
6.62687
6.32242
6.03207
5.7532
5.4879
5.23952
5.0087
4.79196
4.58381
4.38062
4.18312
3.99722
3.82995
3.68276
3.55028
3.42539
3.30354
3.18169
3.05884
2.93864
2.82668
2.72611
2.636
2.55362
2.47592
2.39803
2.31159
2.21388
2.11778
2.03932
1.97755
1.92626
1.88313
1.84484
1.80488
1.75706
1.69969
1.63416
1.57091
1.52012
1.48098
1.44882
1.41766
1.38292
1.34694
1.31029
1.27229
1.23647
1.20536
1.17924
1.15734
1.13733
1.11598
1.08417
1.04235
1.00298
0.971533
0.950496
0.934429
0.919537
0.903981
0.88573
0.865399
0.845361
0.822529
0.799574
0.77616
0.768935
0.787056
0.85807
1.04599
1.33729
1.72672
2.38363
)
;

boundaryField
{
    inlet
    {
        type            fixedValue;
        value           uniform 1;
    }
    outlet
    {
        type            zeroGradient;
    }
    bottom
    {
        type            symmetryPlane;
    }
    top
    {
        type            symmetryPlane;
    }
    obstacle
    {
        type            zeroGradient;
    }
    defaultFaces
    {
        type            empty;
    }
}


// ************************************************************************* //
