/*--------------------------------*- C++ -*----------------------------------*\
  =========                 |
  \\      /  F ield         | OpenFOAM: The Open Source CFD Toolbox
   \\    /   O peration     | Website:  https://openfoam.org
    \\  /    A nd           | Version:  7
     \\/     M anipulation  |
\*---------------------------------------------------------------------------*/
FoamFile
{
    version     2.0;
    format      ascii;
    class       volScalarField;
    location    "2.5";
    object      rho;
}
// * * * * * * * * * * * * * * * * * * * * * * * * * * * * * * * * * * * * * //

dimensions      [1 -3 0 0 0 0 0];

internalField   nonuniform List<scalar> 
4032
(
1.40001
1.40001
1.40001
1.40001
1.40001
1.40001
1.40001
1.40001
1.40001
1.40001
1.40001
1.40001
3.81862
5.43429
5.50638
5.58202
5.65875
5.72924
5.79095
5.8404
5.87728
5.90185
5.92083
5.93891
1.40001
1.40001
1.40001
1.40001
1.40001
1.40001
1.40001
1.40001
1.40001
1.40001
1.40001
1.40001
3.74354
5.40947
5.49632
5.57129
5.64789
5.71701
5.77687
5.82382
5.85804
5.88021
5.89687
5.91388
1.40001
1.40001
1.40001
1.40001
1.40001
1.40001
1.40001
1.40001
1.40001
1.40001
1.40001
1.40001
3.59467
5.38003
5.47748
5.55103
5.62754
5.69542
5.75362
5.79819
5.82971
5.84969
5.86349
5.8804
1.40001
1.40001
1.40001
1.40001
1.40001
1.40001
1.40001
1.40001
1.40001
1.40001
1.40001
1.40001
3.37818
5.33524
5.45268
5.52351
5.59965
5.66598
5.72244
5.7646
5.79247
5.80728
5.81319
5.82196
1.40001
1.40001
1.40001
1.40001
1.40001
1.40001
1.40001
1.40001
1.40001
1.40001
1.40001
1.40001
3.09588
5.26271
5.42269
5.48881
5.56125
5.62218
5.67231
5.70687
5.72653
5.73691
5.73972
5.75499
1.40001
1.40001
1.40001
1.40001
1.40001
1.40001
1.40001
1.40001
1.40001
1.40001
1.40001
1.40001
2.75652
5.14838
5.40017
5.45795
5.52267
5.57414
5.61435
5.6405
5.65297
5.65841
5.65263
5.63719
1.40001
1.40001
1.40001
1.40001
1.40001
1.40001
1.40001
1.40001
1.40001
1.40001
1.40001
1.40001
2.35904
4.98085
5.41361
5.44771
5.49371
5.52953
5.55342
5.56171
5.54963
5.51843
5.48093
5.4625
1.40001
1.40001
1.40001
1.40001
1.40001
1.40001
1.40001
1.40001
1.40001
1.40001
1.40001
1.40001
1.92713
4.74207
5.43289
5.42293
5.45702
5.48089
5.4873
5.47418
5.43712
5.38103
5.30319
5.26503
1.40001
1.40001
1.40001
1.40001
1.40001
1.40001
1.40001
1.40001
1.40001
1.40001
1.40001
1.40001
1.48932
4.35918
5.45534
5.4154
5.41527
5.41255
5.39784
5.36614
5.29522
5.17106
4.84347
3.99596
1.40001
1.40001
1.40001
1.40001
1.40001
1.40001
1.40001
1.40001
1.40001
1.40001
1.40001
1.40001
1.40125
3.70918
5.22779
5.27994
5.30999
5.31279
5.29011
5.24057
5.13354
4.93371
4.59013
3.68468
1.40001
1.40001
1.40001
1.40001
1.40001
1.40001
1.40001
1.40001
1.40001
1.40001
1.40001
1.40001
1.39999
2.96312
5.0561
5.23882
5.24916
5.23995
5.20038
5.12616
4.9911
4.74864
4.38661
3.56183
1.40001
1.40001
1.40001
1.40001
1.40001
1.40001
1.40001
1.40001
1.40001
1.40001
1.40001
1.40001
1.4
2.17421
4.81622
5.2282
5.2071
5.17305
5.10965
5.01251
4.8546
4.61253
4.21467
3.54945
1.40001
1.40001
1.40001
1.40001
1.40001
1.40001
1.40001
1.40001
1.40001
1.40001
1.40001
1.40001
1.4
1.53409
4.26285
5.23164
5.16274
5.09717
5.01143
4.90158
4.73545
4.50272
4.10804
3.58999
1.40001
1.40001
1.40001
1.40001
1.40001
1.40001
1.40001
1.40001
1.40001
1.40001
1.40001
1.40001
1.4
1.402
3.38045
5.06888
5.05006
4.99862
4.9163
4.79933
4.63975
4.4076
4.05103
3.64092
1.40001
1.40001
1.40001
1.40001
1.40001
1.40001
1.40001
1.40001
1.40001
1.40001
1.40001
1.40001
1.40001
1.39998
2.28183
4.85893
5.04741
4.97365
4.87396
4.73903
4.5777
4.33721
4.0287
3.69364
1.40001
1.40001
1.40001
1.40001
1.40001
1.40001
1.40001
1.40001
1.40001
1.40001
1.40001
1.40001
1.40001
1.4
1.53335
4.11721
5.01776
4.93719
4.84002
4.69374
4.52294
4.29116
4.02038
3.73282
1.40001
1.40001
1.40001
1.40001
1.40001
1.40001
1.40001
1.40001
1.40001
1.40001
1.40001
1.40001
1.40001
1.4
1.40171
2.90299
4.84822
4.89146
4.80722
4.67594
4.49546
4.27414
4.02649
3.76814
1.40001
1.40001
1.40001
1.40001
1.40001
1.40001
1.40001
1.40001
1.40001
1.40001
1.40001
1.40001
1.40001
1.4
1.4
1.73604
4.42321
4.95454
4.81661
4.67713
4.48934
4.26936
4.03454
3.79428
1.40001
1.40001
1.40001
1.40001
1.40001
1.40001
1.40001
1.40001
1.40001
1.40001
1.40001
1.40001
1.40001
1.40001
1.4
1.4147
3.28697
4.79343
4.77078
4.65057
4.47722
4.26996
4.04892
3.82243
1.40001
1.40001
1.40001
1.40001
1.40001
1.40001
1.40001
1.40001
1.40001
1.40001
1.40001
1.40001
1.40001
1.40001
1.4
1.4
1.91303
4.43255
4.8339
4.6639
4.48561
4.28694
4.08286
3.86918
1.40001
1.40001
1.40001
1.40001
1.40001
1.40001
1.40001
1.40001
1.40001
1.40001
1.40001
1.40001
1.40001
1.40001
1.40001
1.4
1.4359
3.33899
4.71103
4.64297
4.48483
4.30492
4.11437
3.91459
1.40001
1.40001
1.40001
1.40001
1.40001
1.40001
1.40001
1.40001
1.40001
1.40001
1.40001
1.40001
1.40001
1.40001
1.40001
1.4
1.40016
1.94458
4.25207
4.68384
4.51392
4.34111
4.15465
3.96494
1.40001
1.40001
1.40001
1.40001
1.40001
1.40001
1.40001
1.40001
1.40001
1.40001
1.40001
1.40001
1.40001
1.40001
1.40001
1.40001
1.40001
1.43888
3.06312
4.56459
4.51728
4.3575
4.1851
4.0074
1.40001
1.40001
1.40001
1.40001
1.40001
1.40001
1.40001
1.40001
1.40001
1.40001
1.40001
1.40001
1.40001
1.40001
1.40001
1.40001
1.40001
1.4003
1.80458
3.93714
4.57388
4.39898
4.23471
4.06282
1.40001
1.40001
1.40001
1.40001
1.40001
1.40001
1.40001
1.40001
1.40001
1.40001
1.40001
1.40001
1.40001
1.40001
1.40001
1.40001
1.40001
1.40001
1.42088
2.55569
4.30462
4.41641
4.27589
4.11418
1.40001
1.40001
1.40001
1.40001
1.40001
1.40001
1.40001
1.40001
1.40001
1.40001
1.40001
1.40001
1.40001
1.40001
1.40001
1.40001
1.40001
1.40001
1.40019
1.58703
3.38739
4.43088
4.34589
4.1856
1.40001
1.40001
1.40001
1.40001
1.40001
1.40001
1.40001
1.40001
1.40001
1.40001
1.40001
1.40001
1.40001
1.40001
1.40001
1.40001
1.40001
1.40001
1.40001
1.40501
2.01661
3.92892
4.3794
4.24912
1.40001
1.40001
1.40001
1.40001
1.40001
1.40001
1.40001
1.40001
1.40001
1.40001
1.40001
1.40001
1.40001
1.40001
1.40001
1.40001
1.40001
1.40001
1.40001
1.40004
1.44949
2.60237
4.16131
4.30516
1.40001
1.40001
1.40001
1.40001
1.40001
1.40001
1.40001
1.40001
1.40001
1.40001
1.40001
1.40001
1.40001
1.40001
1.40001
1.40001
1.40001
1.40001
1.40001
1.40001
1.40073
1.59595
3.19197
4.24091
1.40001
1.40001
1.40001
1.40001
1.40001
1.40001
1.40001
1.40001
1.40001
1.40001
1.40001
1.40001
1.40001
1.40001
1.40001
1.40001
1.40001
1.40001
1.40001
1.40001
1.40001
1.40613
1.88613
3.61395
1.40001
1.40001
1.40001
1.40001
1.40001
1.40001
1.40001
1.40001
1.40001
1.40001
1.40001
1.40001
1.40001
1.40001
1.40001
1.40001
1.40001
1.40001
1.40001
1.40001
1.40001
1.40005
1.43174
2.25241
1.40001
1.40001
1.40001
1.40001
1.40001
1.40001
1.40001
1.40001
1.40001
1.40001
1.40001
1.40001
1.40001
1.40001
1.40001
1.40001
1.40001
1.40001
1.40001
1.40001
1.40001
1.40001
1.40044
1.49626
1.40001
1.40001
1.40001
1.40001
1.40001
1.40001
1.40001
1.40001
1.40001
1.40001
1.40001
1.40001
1.40001
1.40001
1.40001
1.40001
1.40001
1.40001
1.40001
1.40001
1.40001
1.40001
1.40001
1.40213
1.40001
1.40001
1.40001
1.40001
1.40001
1.40001
1.40001
1.40001
1.40001
1.40001
1.40001
1.40001
1.40001
1.40001
1.40001
1.40001
1.40001
1.40001
1.40001
1.40001
1.40001
1.40001
1.40001
1.40002
1.40001
1.40001
1.40001
1.40001
1.40001
1.40001
1.40001
1.40001
1.40001
1.40001
1.40001
1.40001
1.40001
1.40001
1.40001
1.40001
1.40001
1.40001
1.40001
1.40001
1.40001
1.40001
1.40001
1.40001
1.40001
1.40001
1.40001
1.40001
1.40001
1.40001
1.40001
1.40001
1.40001
1.40001
1.40001
1.40001
1.40001
1.40001
1.40001
1.40001
1.40001
1.40001
1.40001
1.40001
1.40001
1.40001
1.40001
1.40001
1.40001
1.40001
1.40001
1.40001
1.40001
1.40001
1.40001
1.40001
1.40001
1.40001
1.40001
1.40001
1.40001
1.40001
1.40001
1.40001
1.40001
1.40001
1.40001
1.40001
1.40001
1.40001
1.40001
1.40001
1.40001
1.40001
1.40001
1.40001
1.40001
1.40001
1.40001
1.40001
1.40001
1.40001
1.40001
1.40001
1.40001
1.40001
1.40001
1.40001
1.40001
1.40001
1.40001
1.40001
1.40001
1.40001
1.40001
1.40001
1.40001
1.40001
1.40001
1.40001
1.40001
1.40001
1.40001
1.40001
1.40001
1.40001
1.40001
1.40001
1.40001
1.40001
1.40001
1.40001
1.40001
1.40001
1.40001
1.40001
1.40001
1.40001
1.40001
1.40001
1.40001
1.40001
1.40001
1.40001
1.40001
1.40001
1.40001
1.40001
1.40001
1.40001
1.40001
1.40001
1.40001
1.40001
1.40001
1.40001
1.40001
1.40001
1.40001
1.40001
1.40001
1.40001
1.40001
1.40001
1.33584
0.511478
0.189486
0.174987
0.218482
0.314103
0.407266
0.499584
0.62248
0.706055
0.771004
0.815114
0.875476
0.943898
0.979856
0.990576
1.00956
1.01777
1.01704
1.0191
1.0387
1.05841
1.06443
1.0638
1.05336
1.04961
1.05397
1.07214
1.09367
1.09957
1.09912
1.09129
1.08042
1.07698
1.07878
1.10572
1.34904
2.60815
3.46226
3.44861
3.41948
3.38536
3.31482
3.23671
3.15617
3.09624
3.06202
3.04801
3.02335
2.9759
2.9276
2.88298
2.8454
2.81392
2.77493
2.7329
2.68599
2.64533
2.61489
2.59049
2.57648
2.55628
2.52384
2.4868
2.43949
2.38412
2.34022
2.3124
2.29017
2.27208
2.25803
2.23834
2.21435
2.18305
2.13384
2.07883
2.0463
2.02629
2.0083
1.99273
1.98166
1.96805
1.95009
1.92437
1.87514
1.81447
1.78168
1.76511
1.75146
1.74215
1.74071
1.73601
1.72408
1.70442
1.66314
1.59839
1.96685
1.24907
0.856287
0.61937
0.594013
0.583875
0.567647
0.568918
0.571671
0.591125
0.632789
0.69399
0.764827
0.843892
0.909361
0.945074
0.976055
1.00462
1.02268
1.03666
1.04994
1.0618
1.07367
1.08364
1.08739
1.08345
1.0816
1.08618
1.09221
1.10207
1.11029
1.11217
1.10923
1.09831
1.11311
1.27346
1.63967
2.29609
3.1999
3.39726
3.41864
3.37404
3.29407
3.23357
3.1935
3.14705
3.10462
3.06474
3.02307
2.98082
2.94015
2.90161
2.86716
2.83357
2.79341
2.75175
2.70571
2.6598
2.62445
2.59551
2.5725
2.54853
2.52082
2.48913
2.45162
2.40959
2.36637
2.32838
2.30054
2.2783
2.25649
2.23532
2.2128
2.18544
2.14696
2.09962
2.05869
2.03334
2.01485
1.99796
1.98269
1.96652
1.9475
1.92268
1.88535
1.8371
1.79485
1.77091
1.75695
1.74622
1.73799
1.72986
1.71827
1.7012
1.67244
1.61518
2.46903
1.79977
1.41749
1.14193
0.945451
0.8175
0.729308
0.691799
0.67101
0.659021
0.66957
0.713414
0.7651
0.804436
0.856636
0.91182
0.957122
1.01274
1.06849
1.10157
1.11087
1.10935
1.11084
1.12125
1.14419
1.15638
1.15918
1.15182
1.13084
1.12286
1.12351
1.13374
1.14732
1.18282
1.3296
1.75061
2.05648
2.15261
2.61267
3.22306
3.56133
3.52174
3.44895
3.37503
3.30033
3.25407
3.20747
3.14787
3.08301
3.03474
2.995
2.95936
2.92632
2.88747
2.84648
2.80425
2.75822
2.71242
2.67196
2.63315
2.5946
2.55828
2.52305
2.49011
2.46221
2.43591
2.40889
2.37597
2.33791
2.30273
2.27375
2.24664
2.21765
2.18691
2.15862
2.12931
2.09418
2.05812
2.0325
2.01275
1.99312
1.97237
1.94841
1.92039
1.89271
1.86558
1.83415
1.79854
1.77103
1.75552
1.74288
1.72933
1.71351
1.69414
1.6736
1.637
2.81289
2.25082
1.82959
1.54297
1.34238
1.17671
0.9959
0.892983
0.880205
0.860338
0.82366
0.789321
0.772095
0.766929
0.78132
0.81964
0.874271
0.943125
1.01884
1.06981
1.09027
1.09978
1.10974
1.12926
1.16899
1.20862
1.2147
1.20814
1.18422
1.1651
1.15936
1.16393
1.19853
1.38918
1.8009
2.13901
2.27327
2.23555
2.27073
2.58038
3.14152
3.40631
3.51699
3.49644
3.4122
3.34453
3.27918
3.21891
3.15623
3.0971
3.05576
3.02034
2.98505
2.94412
2.90324
2.85859
2.80951
2.76216
2.71983
2.67944
2.63789
2.59593
2.55683
2.5243
2.49691
2.47223
2.44763
2.42073
2.38529
2.34147
2.30396
2.27255
2.24122
2.21269
2.18882
2.16511
2.13665
2.09869
2.05968
2.03286
2.01087
1.98669
1.9587
1.9326
1.91401
1.89713
1.87691
1.84685
1.80745
1.77629
1.75643
1.7385
1.71884
1.69754
1.68156
1.65796
3.04754
2.59251
2.21244
1.86345
1.64153
1.49348
1.33041
1.1417
1.02745
0.995631
0.96423
0.924893
0.883256
0.827607
0.797236
0.798601
0.80912
0.841493
0.899972
0.961521
0.999944
1.03461
1.07066
1.10443
1.15113
1.19448
1.20894
1.21155
1.20886
1.19629
1.19355
1.2118
1.37659
1.84007
2.1635
2.29715
2.31593
2.29152
2.25721
2.25596
2.45334
2.90168
3.28565
3.47827
3.46778
3.41869
3.34327
3.27635
3.21397
3.14943
3.09553
3.05754
3.02032
2.98133
2.94334
2.90373
2.85911
2.81174
2.76408
2.71643
2.66875
2.62563
2.59157
2.56338
2.53759
2.51304
2.4881
2.46149
2.42723
2.37773
2.3268
2.29359
2.27011
2.24994
2.22978
2.20822
2.18282
2.14691
2.09693
2.05163
2.02143
1.99691
1.97725
1.96293
1.9515
1.93778
1.92026
1.89617
1.85721
1.80774
1.77176
1.74827
1.72863
1.71385
1.7043
1.68394
3.20332
2.80913
2.49196
2.17932
1.89557
1.71164
1.56732
1.42218
1.29459
1.16197
1.0826
1.0618
1.03824
0.987777
0.918872
0.864455
0.844966
0.846577
0.854168
0.866943
0.886846
0.910334
0.956989
1.0121
1.06562
1.1168
1.16256
1.19545
1.19775
1.19645
1.22631
1.38779
1.84703
2.19111
2.28319
2.31621
2.3178
2.28521
2.24891
2.21264
2.20779
2.31276
2.66926
3.16386
3.37234
3.38395
3.37024
3.31585
3.26274
3.19528
3.11985
3.06207
3.02298
2.99057
2.96127
2.92983
2.89097
2.84939
2.80374
2.75312
2.70212
2.659
2.62533
2.59562
2.56707
2.53935
2.51273
2.48568
2.45345
2.40793
2.3525
2.31597
2.29553
2.27741
2.25978
2.24009
2.2175
2.18557
2.13263
2.06967
2.03068
2.0106
1.99646
1.9869
1.98321
1.9747
1.95963
1.94088
1.90886
1.8482
1.7865
1.75765
1.74374
1.73338
1.7292
1.71299
3.3347
2.98562
2.68651
2.40354
2.1476
1.94439
1.74371
1.59554
1.50248
1.39618
1.26969
1.16719
1.13059
1.09888
1.05067
0.996815
0.945646
0.889975
0.870033
0.871709
0.880091
0.900155
0.910314
0.921983
0.944968
0.983053
1.03345
1.09728
1.13984
1.18431
1.41369
1.81614
2.22548
2.3102
2.32985
2.32325
2.30377
2.26335
2.23237
2.20582
2.18813
2.18224
2.23444
2.50526
2.9502
3.22038
3.30671
3.31988
3.29725
3.23925
3.16257
3.08587
3.02336
2.98791
2.96342
2.94332
2.91241
2.87587
2.83389
2.78453
2.73207
2.68571
2.65053
2.62071
2.5903
2.55786
2.52473
2.49272
2.46041
2.4223
2.37618
2.33623
2.3119
2.29272
2.27435
2.2552
2.23341
2.20373
2.15462
2.08781
2.04636
2.02986
2.01674
2.0063
2.00247
1.99807
1.98368
1.96683
1.93977
1.88417
1.81307
1.77717
1.76315
1.7513
1.74468
1.73207
3.42257
3.11524
2.84305
2.5758
2.33113
2.13946
1.9497
1.76264
1.64038
1.55552
1.4596
1.35606
1.25302
1.18272
1.15627
1.12816
1.0873
1.02129
0.945713
0.922682
0.919206
0.915636
0.915307
0.917618
0.910153
0.906554
0.919616
0.961974
1.01769
1.24131
1.72545
2.0706
2.26915
2.2866
2.28276
2.2662
2.25942
2.24445
2.2319
2.2141
2.19641
2.18061
2.16373
2.1806
2.33529
2.70186
3.04262
3.20439
3.27472
3.26355
3.19944
3.13527
3.05753
2.99961
2.96812
2.94204
2.92089
2.89277
2.85763
2.81614
2.76499
2.70819
2.66437
2.63538
2.60786
2.57786
2.54388
2.50563
2.46539
2.42664
2.39001
2.35464
2.32333
2.29808
2.27665
2.2562
2.23472
2.20834
2.17095
2.12066
2.07304
2.04831
2.03461
2.02294
2.01437
2.00718
1.99493
1.97616
1.94832
1.90661
1.85636
1.81016
1.78192
1.76644
1.75825
1.74707
3.49118
3.21876
2.96693
2.71902
2.49022
2.2964
2.11855
1.94811
1.80501
1.67789
1.58226
1.51043
1.42955
1.33249
1.2374
1.19957
1.17493
1.13551
1.08179
1.02662
0.986039
0.946874
0.92887
0.931707
0.929086
0.922041
0.916893
0.926197
1.08251
1.53606
1.85432
2.0204
2.14086
2.15481
2.1553
2.16987
2.19588
2.22282
2.22206
2.21351
2.20466
2.18563
2.16686
2.1499
2.13056
2.19852
2.46418
2.8298
3.10778
3.20331
3.21198
3.17829
3.12551
3.05196
2.97893
2.94302
2.91831
2.9013
2.8777
2.84326
2.79977
2.73688
2.67289
2.64008
2.61635
2.59176
2.56414
2.53022
2.48854
2.44177
2.39746
2.36247
2.33249
2.30469
2.27932
2.25542
2.23117
2.20649
2.18224
2.15449
2.11591
2.07323
2.05128
2.03923
2.02668
2.00936
1.98611
1.96017
1.93561
1.91415
1.88984
1.85751
1.82103
1.78891
1.77166
1.74978
3.5438
3.29879
3.064
2.83756
2.62915
2.43549
2.25156
2.09784
1.96876
1.83738
1.69993
1.60705
1.54644
1.47357
1.39086
1.31237
1.2353
1.20272
1.18365
1.14672
1.10018
1.04257
0.984809
0.972789
0.966645
0.949757
0.959029
1.07477
1.45768
1.79204
1.89799
1.91775
1.93088
1.94664
1.97293
2.01224
2.04985
2.09308
2.13841
2.16145
2.16613
2.17838
2.17174
2.15501
2.12638
2.08881
2.11067
2.26137
2.58171
2.91901
3.10574
3.16646
3.17607
3.11883
3.02292
2.95112
2.9174
2.90053
2.89021
2.86466
2.83122
2.77648
2.69742
2.64222
2.61573
2.59509
2.57527
2.55092
2.5211
2.47999
2.42452
2.36785
2.33023
2.30532
2.28184
2.25776
2.23363
2.21232
2.19448
2.17648
2.15314
2.11768
2.07503
2.04102
2.01745
1.99777
1.97664
1.9534
1.93215
1.91691
1.90344
1.88653
1.86012
1.82285
1.79038
1.75475
3.59372
3.37246
3.15144
2.94089
2.74812
2.56391
2.38633
2.22681
2.09045
1.97047
1.85
1.7449
1.64295
1.55438
1.49886
1.44165
1.36581
1.28186
1.24278
1.21992
1.1904
1.15133
1.09323
1.03565
1.01035
1.00408
1.09848
1.47156
1.856
1.9519
1.93107
1.90231
1.88044
1.86224
1.85706
1.85362
1.85359
1.87848
1.92108
1.97714
2.03456
2.08774
2.11426
2.11488
2.10106
2.07812
2.05764
2.04909
2.10977
2.34163
2.69972
2.98505
3.11709
3.12462
3.07468
2.98296
2.93388
2.90465
2.89036
2.87586
2.85147
2.81263
2.7469
2.66787
2.62115
2.59733
2.57783
2.56073
2.53899
2.51147
2.4688
2.4032
2.33921
2.30347
2.2814
2.26061
2.2407
2.22397
2.20906
2.19409
2.17707
2.1513
2.10585
2.05202
2.01559
1.99051
1.9692
1.95119
1.93733
1.92513
1.91201
1.89745
1.87866
1.85004
1.81423
1.7625
3.65479
3.44366
3.23107
3.03584
2.85105
2.66796
2.49956
2.3545
2.21357
2.07436
1.96162
1.86396
1.76509
1.6667
1.57927
1.52439
1.46647
1.40004
1.34248
1.28456
1.24413
1.22391
1.18855
1.13449
1.11181
1.20275
1.5519
1.95898
2.06504
2.02468
1.97648
1.93499
1.90687
1.89064
1.87264
1.8543
1.83594
1.8145
1.80125
1.80981
1.84035
1.8837
1.92917
1.97345
2.00494
2.01956
2.0149
1.99617
1.99473
2.0232
2.16184
2.45518
2.78324
2.99648
3.02703
3.01209
2.96609
2.92135
2.89444
2.87912
2.85945
2.83119
2.79319
2.73192
2.65281
2.60055
2.57515
2.55625
2.54203
2.52193
2.49586
2.45429
2.38531
2.31676
2.28278
2.26352
2.24723
2.23261
2.21896
2.20499
2.18913
2.16754
2.13031
2.07384
2.02104
1.98952
1.97188
1.95892
1.94632
1.93296
1.9189
1.90418
1.88729
1.86373
1.83002
1.77292
3.70911
3.503
3.30654
3.12221
2.94132
2.76504
2.61011
2.46074
2.3184
2.18375
2.07583
1.96485
1.86396
1.7703
1.69203
1.61872
1.54485
1.48448
1.44062
1.3901
1.32512
1.26954
1.24603
1.23176
1.33042
1.70932
2.11391
2.2177
2.16841
2.10895
2.05726
2.02045
1.98522
1.9523
1.9226
1.89474
1.86224
1.81688
1.78902
1.78109
1.77637
1.77085
1.77204
1.78594
1.81324
1.84352
1.86525
1.89396
1.91
1.91776
1.93833
2.01321
2.20808
2.50514
2.75193
2.91486
2.94541
2.92274
2.89834
2.87803
2.86673
2.84762
2.82078
2.78309
2.7141
2.62653
2.5777
2.55436
2.53577
2.5235
2.50574
2.48161
2.44014
2.36508
2.29772
2.27081
2.25341
2.23768
2.22276
2.20791
2.19214
2.17259
2.14244
2.09379
2.03848
2.00245
1.98519
1.97234
1.95889
1.94481
1.93057
1.91402
1.89075
1.85767
1.82787
1.78056
3.76913
3.57058
3.3849
3.20667
3.02723
2.86116
2.71082
2.5639
2.41649
2.29138
2.17885
2.06989
1.9634
1.87026
1.7927
1.71549
1.64161
1.56831
1.51219
1.47225
1.41692
1.355
1.32951
1.42955
1.83281
2.27695
2.38445
2.3348
2.27359
2.21984
2.16139
2.10453
2.06063
2.02673
1.99741
1.96755
1.93461
1.88786
1.83475
1.79582
1.77382
1.75854
1.74916
1.74431
1.73726
1.7247
1.71516
1.72301
1.73626
1.7567
1.78735
1.80788
1.85165
1.97207
2.18369
2.46309
2.72189
2.8643
2.85385
2.86131
2.87111
2.86159
2.83552
2.80106
2.75038
2.67584
2.60059
2.55751
2.53555
2.51989
2.5086
2.49145
2.46731
2.42096
2.34311
2.2837
2.25935
2.24218
2.22583
2.20973
2.19381
2.17562
2.14995
2.1102
2.06246
2.02662
2.00369
1.9858
1.96977
1.95476
1.94048
1.92371
1.89922
1.86219
1.81806
1.77102
3.82352
3.64128
3.46294
3.28367
3.11059
2.95721
2.80602
2.65661
2.51484
2.39659
2.27768
2.16746
2.05797
1.97267
1.88578
1.80592
1.73085
1.66545
1.60028
1.53346
1.48405
1.45777
1.57955
2.0107
2.44552
2.55207
2.4991
2.43547
2.38134
2.32148
2.25322
2.19871
2.15817
2.12304
2.08993
2.05592
2.01765
1.96765
1.90721
1.85479
1.81888
1.79338
1.76934
1.74484
1.72343
1.70551
1.69255
1.67364
1.64556
1.63343
1.63915
1.65065
1.65828
1.68222
1.74271
1.8683
2.1077
2.42039
2.65121
2.76857
2.81321
2.83509
2.83269
2.80675
2.75893
2.70662
2.64898
2.58606
2.54418
2.52142
2.50495
2.49378
2.47569
2.44535
2.39177
2.31776
2.26826
2.24685
2.22905
2.21172
2.19574
2.17973
2.15963
2.12959
2.0878
2.04745
2.01971
1.99972
1.982
1.96419
1.94588
1.92616
1.9027
1.86555
1.81669
1.77446
3.88577
3.71409
3.54239
3.36476
3.1997
3.04845
2.89911
2.74516
2.61537
2.49297
2.37581
2.25706
2.15727
2.06812
1.97769
1.89676
1.8169
1.75256
1.68148
1.6154
1.58451
1.71814
2.19877
2.64306
2.73183
2.67303
2.60168
2.54164
2.4833
2.41355
2.34591
2.29549
2.25422
2.21484
2.1757
2.13534
2.0902
2.03553
1.97223
1.91933
1.88309
1.85218
1.82312
1.79457
1.76722
1.73715
1.70318
1.66954
1.63632
1.61897
1.61073
1.59488
1.58034
1.57789
1.57363
1.57917
1.62606
1.75588
2.02205
2.31876
2.60439
2.69205
2.75188
2.75912
2.74799
2.72496
2.67744
2.62631
2.58091
2.53752
2.50276
2.48111
2.46149
2.43983
2.41022
2.36186
2.29857
2.25631
2.23382
2.21456
2.19643
2.18042
2.16543
2.14852
2.11928
2.07372
2.03262
2.00719
1.98866
1.97088
1.95076
1.92716
1.90165
1.86805
1.82954
1.79068
3.94847
3.78215
3.6123
3.44484
3.2885
3.13281
2.97723
2.83367
2.70944
2.5843
2.4626
2.34447
2.25397
2.1564
2.06792
1.97801
1.90643
1.82622
1.75582
1.72616
1.88965
2.41579
2.85877
2.91695
2.84998
2.77153
2.70736
2.64785
2.57946
2.50705
2.44289
2.3905
2.34419
2.30018
2.25709
2.21415
2.16914
2.11737
2.05487
1.99258
1.946
1.9101
1.87823
1.84775
1.81706
1.78389
1.74689
1.70166
1.65706
1.62591
1.60475
1.58358
1.57007
1.56479
1.55029
1.53547
1.51937
1.51167
1.54205
1.65894
1.9181
2.22975
2.50013
2.64929
2.66462
2.67241
2.66903
2.65135
2.61248
2.56109
2.51218
2.47588
2.44855
2.42447
2.40398
2.37855
2.33861
2.28673
2.24533
2.22067
2.20339
2.19178
2.18288
2.16751
2.13986
2.10111
2.05391
2.01473
1.99129
1.97579
1.95572
1.92859
1.90133
1.87483
1.85371
1.81705
4.02377
3.85778
3.68616
3.52352
3.36914
3.21536
3.05889
2.92506
2.79654
2.6737
2.54622
2.44213
2.34379
2.24663
2.15104
2.06456
1.98239
1.90499
1.88728
2.08336
2.66503
3.09373
3.13594
3.05658
2.96338
2.88845
2.82186
2.75242
2.67784
2.60344
2.53658
2.47948
2.42918
2.38215
2.33581
2.28886
2.24
2.18596
2.12318
2.0585
2.00798
1.97105
1.93914
1.90747
1.87443
1.84035
1.80297
1.7565
1.70621
1.66527
1.6345
1.61074
1.59322
1.57225
1.54711
1.52616
1.50702
1.48862
1.46861
1.45815
1.48108
1.59125
1.80992
2.1437
2.38455
2.56282
2.61161
2.59931
2.58938
2.57235
2.52865
2.48941
2.45256
2.4185
2.39557
2.37826
2.35429
2.31141
2.27082
2.2433
2.21934
2.19396
2.16699
2.14873
2.13535
2.11192
2.07662
2.03955
2.0006
1.96718
1.94485
1.9249
1.90442
1.88543
1.8708
1.83824
4.08245
3.91549
3.74898
3.59333
3.44143
3.28451
3.13938
3.0134
2.8853
2.75579
2.63315
2.5351
2.43001
2.3335
2.23272
2.13948
2.05638
2.04946
2.31268
2.93998
3.36918
3.34179
3.23567
3.1366
3.0681
3.00362
2.93414
2.86002
2.78141
2.69861
2.62122
2.55841
2.50672
2.45976
2.41383
2.36704
2.31738
2.26091
2.19371
2.12256
2.06683
2.02868
1.99683
1.96566
1.93338
1.89839
1.85716
1.80666
1.75297
1.7111
1.68054
1.65594
1.63219
1.60573
1.57888
1.55141
1.52105
1.48556
1.45587
1.44062
1.42756
1.42043
1.43771
1.52851
1.73615
2.05017
2.30366
2.44365
2.53537
2.54284
2.53238
2.51359
2.4762
2.44159
2.40726
2.3668
2.32814
2.30768
2.29029
2.26647
2.23341
2.19886
2.16983
2.14686
2.12194
2.10172
2.08633
2.05977
2.01714
1.97216
1.94012
1.9212
1.90879
1.89685
1.88616
1.86069
4.15626
3.98444
3.82377
3.67189
3.52243
3.36905
3.23058
3.10482
2.97346
2.8355
2.72767
2.62544
2.52151
2.41591
2.30962
2.21065
2.23674
2.56597
3.28005
3.65266
3.60755
3.47892
3.34502
3.24859
3.18125
3.11536
3.04516
2.97077
2.88851
2.79614
2.70722
2.63817
2.5835
2.5339
2.48562
2.43695
2.3859
2.32887
2.26274
2.19197
2.13075
2.08525
2.04861
2.01507
1.98238
1.94872
1.91037
1.86365
1.81059
1.76073
1.72068
1.69189
1.66866
1.64624
1.62283
1.59581
1.56391
1.52264
1.48131
1.44462
1.41968
1.40266
1.3959
1.39069
1.40405
1.47459
1.66564
1.91794
2.18403
2.33027
2.44065
2.47213
2.47707
2.46931
2.42742
2.37504
2.3393
2.30574
2.26767
2.24041
2.22551
2.20656
2.17997
2.14648
2.11964
2.09839
2.06941
2.03752
2.00768
1.9777
1.95064
1.93023
1.91395
1.9001
1.88821
1.8553
4.22163
4.06991
3.90413
3.75393
3.6064
3.45519
3.31752
3.19078
3.05923
2.92471
2.81741
2.70556
2.60355
2.49258
2.37764
2.41668
2.87595
3.59468
3.96165
3.8775
3.71509
3.57953
3.47247
3.38373
3.30294
3.22509
3.14739
3.06787
2.98285
2.89098
2.8008
2.7248
2.66271
2.60736
2.5544
2.50174
2.44774
2.39031
2.32842
2.26454
2.20489
2.15432
2.11094
2.07041
2.03049
1.99106
1.95141
1.90956
1.86573
1.82336
1.78284
1.74293
1.70526
1.67406
1.64904
1.62533
1.60052
1.57041
1.53476
1.49288
1.4526
1.41775
1.39663
1.37986
1.37147
1.36378
1.36534
1.40617
1.54979
1.78693
2.07446
2.24085
2.36684
2.40777
2.40182
2.39451
2.37006
2.31945
2.27448
2.2424
2.21294
2.18192
2.15214
2.13628
2.12179
2.0975
2.06426
2.0329
2.0051
1.97924
1.9582
1.93983
1.92503
1.91224
1.89679
1.85495
4.2195
4.15809
3.9944
3.83693
3.68613
3.53955
3.40734
3.27965
3.13861
3.01395
2.90439
2.79683
2.68282
2.55905
2.6245
3.19283
3.9501
4.2592
4.19422
4.01225
3.84148
3.7024
3.59516
3.50783
3.42018
3.33357
3.2478
3.16143
3.07438
2.98774
2.90271
2.82198
2.74925
2.68443
2.62427
2.56596
2.50818
2.45018
2.39166
2.33299
2.27545
2.22158
2.17232
2.12567
2.07902
2.03078
1.98179
1.93547
1.89522
1.86044
1.82747
1.79346
1.75802
1.72187
1.68455
1.64715
1.612
1.58363
1.5576
1.526
1.48994
1.45644
1.42899
1.40266
1.3801
1.35697
1.34006
1.31995
1.30955
1.33874
1.46423
1.70329
1.99175
2.17433
2.26482
2.32708
2.32296
2.31858
2.30281
2.26005
2.21656
2.18371
2.15284
2.11908
2.08723
2.0673
2.05334
2.0351
2.01123
1.98748
1.97038
1.95447
1.9333
1.901
1.87278
1.84195
3.85427
4.17921
4.08523
3.92647
3.77264
3.62644
3.49384
3.36332
3.22766
3.1058
2.98783
2.88186
2.7627
2.87012
3.56657
4.32674
4.47096
4.41583
4.27079
4.13583
3.99772
3.85685
3.72991
3.62254
3.52904
3.43875
3.34842
3.25848
3.1704
3.08438
2.99901
2.91451
2.83481
2.7629
2.69716
2.63438
2.57269
2.51179
2.4518
2.3927
2.33444
2.27813
2.22508
2.17493
2.12642
2.07826
2.03003
1.98238
1.93605
1.89199
1.85209
1.81733
1.78603
1.75479
1.72148
1.68678
1.65178
1.61736
1.57866
1.5345
1.49875
1.47664
1.45811
1.43782
1.41255
1.38247
1.35009
1.31747
1.294
1.27308
1.26965
1.29863
1.40022
1.62007
1.8799
2.11086
2.17251
2.22897
2.23878
2.23636
2.22917
2.21313
2.17473
2.1251
2.08558
2.05729
2.03144
2.00995
1.99857
1.99454
1.98809
1.97326
1.9436
1.90267
1.86808
1.82726
2.62178
3.98008
4.13974
4.02842
3.86569
3.71515
3.5851
3.44978
3.31974
3.18392
3.08008
2.97922
3.16218
3.94848
4.78619
4.90424
4.71452
4.50073
4.36868
4.27351
4.15616
4.02
3.88232
3.75753
3.65065
3.55256
3.45749
3.36479
3.27438
3.18455
3.09328
3.00166
2.91474
2.83659
2.76631
2.70039
2.63598
2.57185
2.5076
2.4436
2.38103
2.32127
2.26523
2.21269
2.16326
2.11618
2.07009
2.0237
1.97668
1.9301
1.88527
1.8423
1.801
1.7629
1.73164
1.70591
1.67897
1.64659
1.60992
1.5724
1.53459
1.49655
1.46268
1.43977
1.42526
1.4099
1.38399
1.35257
1.31778
1.2806
1.25871
1.24956
1.24482
1.26723
1.35076
1.5392
1.77338
2.00877
2.08528
2.13726
2.17184
2.16768
2.15863
2.13824
2.10368
2.06003
2.03055
2.01585
2.00263
1.98434
1.9649
1.94823
1.93273
1.90695
1.87139
1.82711
1.60736
2.95458
4.01858
4.09179
3.97068
3.81082
3.66995
3.54259
3.39734
3.28197
3.20783
3.48287
4.40475
5.15616
5.1897
5.04924
4.8489
4.66618
4.52796
4.41704
4.29805
4.169
4.03539
3.9027
3.77933
3.66788
3.56522
3.46814
3.37354
3.27811
3.18029
3.08197
2.98821
2.90305
2.8264
2.75566
2.68781
2.62047
2.55259
2.48463
2.41821
2.35539
2.29746
2.24425
2.19502
2.14804
2.10106
2.05273
2.00327
1.95497
1.91008
1.86889
1.83155
1.7982
1.76609
1.72959
1.68535
1.63922
1.60516
1.58343
1.55888
1.52586
1.49278
1.46523
1.44163
1.42359
1.40763
1.38262
1.34623
1.30674
1.27545
1.25343
1.23889
1.22808
1.21727
1.22828
1.29502
1.44486
1.66104
1.87084
2.05943
2.08816
2.0912
2.08188
2.06389
2.0585
2.05601
2.0459
2.02161
1.99098
1.96324
1.94031
1.91303
1.88333
1.86514
1.83568
1.40732
1.7575
3.22114
4.01567
4.03356
3.91491
3.77086
3.62074
3.47851
3.47738
3.92029
4.9356
5.54378
5.6409
5.40396
5.17681
4.99994
4.84927
4.70566
4.568
4.43439
4.30094
4.16504
4.02892
3.89845
3.77687
3.66371
3.55679
3.45361
3.3519
3.25041
3.1503
3.05394
2.96347
2.87966
2.80145
2.72739
2.65632
2.58725
2.51943
2.45296
2.3893
2.33017
2.27609
2.22609
2.17772
2.1285
2.07729
2.02386
1.96984
1.92007
1.87894
1.84523
1.81502
1.78478
1.75036
1.7082
1.66285
1.62268
1.58682
1.55477
1.52947
1.5097
1.49084
1.46847
1.44139
1.40858
1.37492
1.35036
1.33132
1.3072
1.27911
1.24918
1.2286
1.21246
1.2012
1.18725
1.18654
1.2353
1.35853
1.58056
1.79317
1.98333
2.03098
2.01874
2.0177
2.00722
2.00297
2.01156
2.00173
1.97788
1.94354
1.9102
1.88336
1.85517
1.8106
1.40007
1.41902
1.93542
3.39702
4.00322
3.98788
3.88023
3.69207
3.76921
4.44868
5.59536
6.00058
5.93174
5.80622
5.60517
5.37311
5.17545
5.00228
4.84304
4.69271
4.5493
4.40678
4.26457
4.12386
3.98828
3.86227
3.74361
3.62926
3.51778
3.40975
3.30605
3.2062
3.10931
3.01558
2.92625
2.84167
2.76111
2.68389
2.61071
2.54285
2.48003
2.42023
2.36228
2.30663
2.25386
2.20263
2.15068
2.09675
2.04131
1.98711
1.93761
1.89502
1.85919
1.82667
1.79161
1.75221
1.71889
1.69145
1.65432
1.61099
1.5776
1.55201
1.52639
1.50071
1.47288
1.4404
1.41151
1.39094
1.36783
1.33529
1.30627
1.28996
1.27776
1.26345
1.2418
1.21496
1.18564
1.16039
1.14026
1.14241
1.18579
1.30452
1.52007
1.714
1.88613
1.97405
1.97083
1.967
1.95837
1.94715
1.94218
1.93958
1.92458
1.89806
1.86077
1.806
1.40001
1.40023
1.44036
2.10138
3.54539
3.94834
3.92341
4.17637
5.09791
6.14429
6.50762
6.3726
6.08567
5.90088
5.74404
5.53447
5.32117
5.12918
4.95449
4.78403
4.61879
4.47065
4.33216
4.19502
4.0553
3.92218
3.79883
3.67977
3.56323
3.44975
3.34106
3.23808
3.14046
3.0467
2.9555
2.86705
2.78265
2.703
2.62801
2.55812
2.49307
2.43208
2.37474
2.32096
2.27066
2.22159
2.17083
2.11727
2.06152
2.00585
1.95423
1.90988
1.87153
1.83531
1.7996
1.76605
1.73326
1.69087
1.64163
1.59606
1.56274
1.54708
1.53591
1.52014
1.49475
1.46107
1.42253
1.38449
1.3546
1.33357
1.31978
1.30382
1.28084
1.25686
1.23432
1.21191
1.184
1.15399
1.13243
1.12002
1.11742
1.12287
1.15983
1.26969
1.45833
1.63794
1.7822
1.90988
1.91585
1.90404
1.90575
1.89758
1.88669
1.88136
1.86912
1.81789
1.40001
1.40001
1.40062
1.47108
2.30704
3.36303
4.37139
5.90148
6.58974
6.74604
6.69511
6.46088
6.19696
5.97468
5.81149
5.6204
5.41187
5.21272
5.03324
4.86433
4.69481
4.5214
4.35931
4.2221
4.1062
3.99117
3.87027
3.74883
3.62976
3.51527
3.40629
3.30258
3.20277
3.10502
3.00878
2.9158
2.82763
2.74591
2.671
2.60074
2.53404
2.4717
2.41509
2.36421
2.31626
2.26876
2.21911
2.16547
2.10809
2.04972
1.99517
1.94806
1.90754
1.87064