/*--------------------------------*- C++ -*----------------------------------*\
  =========                 |
  \\      /  F ield         | OpenFOAM: The Open Source CFD Toolbox
   \\    /   O peration     | Website:  https://openfoam.org
    \\  /    A nd           | Version:  7
     \\/     M anipulation  |
\*---------------------------------------------------------------------------*/
FoamFile
{
    version     2.0;
    format      ascii;
    class       volScalarField;
    location    "1.8";
    object      p;
}
// * * * * * * * * * * * * * * * * * * * * * * * * * * * * * * * * * * * * * //

dimensions      [1 -1 -2 0 0 0 0];

internalField   nonuniform List<scalar> 
258048
(
1
1
1
1
1
1
1
1
1
1
1
1
1
1
1
1
1
1
1
1
1
1
1
1
1
1
1
1
1
1
1
1
1
1
1
1
1
1
1
1
1
1
1
1
1
1
1
1
1
1
1
1
1
1
1
1
1
1
1
1
1
1
1
1
1
1
1
1
1
1
1
1
1
1
1
1
1
1
1
1
1
1
1
1
1
1
1
1
1
1
1
1
1
1
1
1
1
1
1
1
1
4.09948
10.0596
10.5118
10.5332
10.5557
10.5692
10.5906
10.6418
10.6963
10.7438
10.7773
10.7911
10.7959
10.8077
10.8336
10.8726
10.9147
10.9501
10.9756
10.9931
11.0085
11.0284
11.0578
11.097
11.1412
11.182
11.2126
11.2296
11.2324
11.2304
11.2337
11.2464
11.2736
11.3045
11.3353
11.363
11.3897
11.4181
11.449
11.4796
11.5064
11.5274
11.5436
11.5598
11.5793
11.5995
11.6159
11.6245
11.6263
11.6323
11.6541
11.6908
11.7341
11.7732
11.796
11.7955
11.7849
11.7772
11.7864
11.8137
11.8513
11.8862
11.907
11.9138
11.9133
11.9147
11.9252
11.9443
11.9659
11.9826
11.9893
11.989
11.986
11.9837
11.9849
11.9921
12.006
12.0255
12.049
12.0713
12.0873
12.0945
12.0925
12.0859
12.0808
12.0805
12.0865
12.0976
12.1122
12.1229
12.1366
1
1
1
1
1
1
1
1
1
1
1
1
1
1
1
1
1
1
1
1
1
1
1
1
1
1
1
1
1
1
1
1
1
1
1
1
1
1
1
1
1
1
1
1
1
1
1
1
1
1
1
1
1
1
1
1
1
1
1
1
1
1
1
1
1
1
1
1
1
1
1
1
1
1
1
1
1
1
1
1
1
1
1
1
1
1
1
1
1
1
1
1
1
1
1
1
1
1
1
1
1
4.08681
10.0372
10.5153
10.5278
10.5535
10.5753
10.6032
10.6495
10.701
10.7432
10.7712
10.7837
10.7914
10.8075
10.8366
10.8764
10.9176
10.9518
10.9769
10.995
11.0118
11.0331
11.0629
11.101
11.1427
11.1802
11.2085
11.2252
11.2297
11.2292
11.2335
11.2465
11.2731
11.3042
11.3359
11.3648
11.3918
11.4198
11.4495
11.4795
11.5069
11.5295
11.5474
11.564
11.5818
11.599
11.6131
11.6216
11.6258
11.6353
11.6593
11.6953
11.7352
11.7705
11.7915
11.7921
11.7847
11.7801
11.7904
11.8161
11.8504
11.8824
11.9021
11.9099
11.9117
11.915
11.9265
11.9451
11.9654
11.9805
11.9867
11.9869
11.9854
11.9852
11.9883
11.9962
12.0085
12.0251
12.0457
12.0663
12.082
12.0902
12.0899
12.0853
12.0821
12.0833
12.0896
12.0998
12.1122
12.1206
12.1311
1
1
1
1
1
1
1
1
1
1
1
1
1
1
1
1
1
1
1
1
1
1
1
1
1
1
1
1
1
1
1
1
1
1
1
1
1
1
1
1
1
1
1
1
1
1
1
1
1
1
1
1
1
1
1
1
1
1
1
1
1
1
1
1
1
1
1
1
1
1
1
1
1
1
1
1
1
1
1
1
1
1
1
1
1
1
1
1
1
1
1
1
1
1
1
1
1
1
1
1
1
4.06179
10.0198
10.5128
10.5156
10.5419
10.5713
10.6114
10.6592
10.7068
10.7422
10.7631
10.7732
10.7847
10.8061
10.8392
10.8799
10.9199
10.9527
10.9771
10.9961
11.0151
11.0386
11.0698
11.1071
11.1456
11.1785
11.2027
11.2183
11.2251
11.2269
11.2331
11.2467
11.273
11.3039
11.3362
11.3663
11.3941
11.4215
11.4496
11.4781
11.5057
11.5301
11.5507
11.5688
11.5846
11.5979
11.6084
11.6161
11.6235
11.6383
11.666
11.7017
11.7371
11.7666
11.7843
11.7863
11.7832
11.7834
11.7962
11.8202
11.8503
11.8779
11.896
11.9047
11.9091
11.9151
11.9276
11.9457
11.9641
11.9774
11.9827
11.9831
11.9833
11.9861
11.9928
12.0026
12.0135
12.0263
12.0423
12.0593
12.074
12.0836
12.086
12.0845
12.084
12.0866
12.0929
12.1017
12.1117
12.1181
12.1249
1
1
1
1
1
1
1
1
1
1
1
1
1
1
1
1
1
1
1
1
1
1
1
1
1
1
1
1
1
1
1
1
1
1
1
1
1
1
1
1
1
1
1
1
1
1
1
1
1
1
1
1
1
1
1
1
1
1
1
1
1
1
1
1
1
1
1
1
1
1
1
1
1
1
1
1
1
1
1
1
1
1
1
1
1
1
1
1
1
1
1
1
1
1
1
1
1
1
1
1
1
4.01551
9.9904
10.5014
10.5042
10.5384
10.5748
10.619
10.6662
10.7082
10.7366
10.7516
10.7618
10.7791
10.8071
10.8437
10.8839
10.9216
10.9522
10.9758
10.9963
11.018
11.0445
11.0773
11.1138
11.1488
11.1767
11.1959
11.2094
11.2186
11.2231
11.2318
11.2468
11.2733
11.3047
11.3381
11.3691
11.3967
11.4224
11.4484
11.4762
11.5055
11.533
11.5567
11.5749
11.5867
11.5948
11.6016
11.6096
11.6221
11.6438
11.6754
11.7098
11.7389
11.7609
11.7748
11.779
11.7815
11.7877
11.8028
11.8244
11.8492
11.872
11.8886
11.8989
11.9066
11.9157
11.9287
11.9454
11.9615
11.9729
11.9778
11.9791
11.9814
11.9877
11.9979
12.0087
12.018
12.0271
12.0382
12.0514
12.0647
12.0752
12.0803
12.0827
12.0855
12.0902
12.0966
12.1037
12.1107
12.1144
12.1168
1
1
1
1
1
1
1
1
1
1
1
1
1
1
1
1
1
1
1
1
1
1
1
1
1
1
1
1
1
1
1
1
1
1
1
1
1
1
1
1
1
1
1
1
1
1
1
1
1
1
1
1
1
1
1
1
1
1
1
1
1
1
1
1
1
1
1
1
1
1
1
1
1
1
1
1
1
1
1
1
1
1
1
1
1
1
1
1
1
1
1
1
1
1
1
1
1
1
1
1
1
3.94809
9.95564
10.4873
10.4982
10.538
10.578
10.6234
10.6683
10.7051
10.728
10.7403
10.7546
10.7784
10.811
10.8485
10.8869
10.9214
10.9496
10.9728
10.9949
11.0196
11.0489
11.0833
11.1194
11.1515
11.1754
11.1906
11.2015
11.2116
11.2182
11.2293
11.2463
11.2738
11.3064
11.3407
11.3718
11.3983
11.422
11.4461
11.4739
11.5057
11.537
11.5634
11.5804
11.5877
11.5901
11.5934
11.6028
11.6215
11.6507
11.6859
11.7178
11.7399
11.754
11.7641
11.771
11.7796
11.7918
11.8091
11.8278
11.8472
11.8657
11.8815
11.8942
11.9054
11.9167
11.929
11.9436
11.9574
11.9675
11.9728
11.9755
11.9803
11.989
12.001
12.0122
12.0205
12.0273
12.0349
12.0447
12.0563
12.0669
12.0739
12.0796
12.0856
12.0924
12.099
12.1046
12.1088
12.1103
12.1089
1
1
1
1
1
1
1
1
1
1
1
1
1
1
1
1
1
1
1
1
1
1
1
1
1
1
1
1
1
1
1
1
1
1
1
1
1
1
1
1
1
1
1
1
1
1
1
1
1
1
1
1
1
1
1
1
1
1
1
1
1
1
1
1
1
1
1
1
1
1
1
1
1
1
1
1
1
1
1
1
1
1
1
1
1
1
1
1
1
1
1
1
1
1
1
1
1
1
1
1
1
3.85237
9.91513
10.4793
10.4974
10.5388
10.5789
10.6225
10.6644
10.6975
10.718
10.7325
10.753
10.7828
10.8171
10.8525
10.887
10.918
10.9444
10.9678
10.9921
11.0194
11.051
11.0867
11.1224
11.1527
11.1744
11.1878
11.1971
11.2066
11.2142
11.2264
11.2452
11.274
11.3077
11.3425
11.3732
11.3983
11.4201
11.4432
11.4723
11.5071
11.5417
11.5688
11.5828
11.5856
11.5832
11.5847
11.5975
11.623
11.6584
11.6955
11.7233
11.7382
11.7456
11.7532
11.7633
11.7773
11.7952
11.8139
11.8297
11.8442
11.8594
11.8755
11.8911
11.9056
11.918
11.9286
11.9402
11.9518
11.9617
11.9683
11.9731
11.9795
11.9889
12.0007
12.0116
12.0197
12.0263
12.0329
12.0407
12.0509
12.0604
12.0677
12.0754
12.0839
12.0925
12.0996
12.1041
12.1059
12.1062
12.1025
1
1
1
1
1
1
1
1
1
1
1
1
1
1
1
1
1
1
1
1
1
1
1
1
1
1
1
1
1
1
1
1
1
1
1
1
1
1
1
1
1
1
1
1
1
1
1
1
1
1
1
1
1
1
1
1
1
1
1
1
1
1
1
1
1
1
1
1
1
1
1
1
1
1
1
1
1
1
1
1
1
1
1
1
1
1
1
1
1
1
1
1
1
1
1
1
1
1
1
1
1
3.7336
9.87013
10.4772
10.499
10.5402
10.5789
10.6194
10.6573
10.6878
10.7095
10.7293
10.7559
10.7891
10.8217
10.8531
10.8834
10.9116
10.9372
10.962
10.989
11.0174
11.0492
11.0854
11.1216
11.1519
11.1735
11.1869
11.1961
11.2052
11.2126
11.2244
11.2433
11.2724
11.3065
11.3416
11.3723
11.3966
11.4176
11.4412
11.4722
11.5092
11.5448
11.5705
11.5812
11.5799
11.5746
11.5774
11.5952
11.6267
11.666
11.7022
11.7247
11.7334
11.7364
11.7426
11.756
11.7757
11.7979
11.817
11.8301
11.8406
11.8534
11.8705
11.8893
11.9067
11.9194
11.9278
11.9357
11.9451
11.9558
11.9647
11.9717
11.9783
11.9864
11.9963
12.0063
12.0152
12.0237
12.0321
12.0399
12.0487
12.0564
12.0629
12.0708
12.08
12.0893
12.0967
12.1009
12.1022
12.1027
12.0987
1
1
1
1
1
1
1
1
1
1
1
1
1
1
1
1
1
1
1
1
1
1
1
1
1
1
1
1
1
1
1
1
1
1
1
1
1
1
1
1
1
1
1
1
1
1
1
1
1
1
1
1
1
1
1
1
1
1
1
1
1
1
1
1
1
1
1
1
1
1
1
1
1
1
1
1
1
1
1
1
1
1
1
1
1
1
1
1
1
1
1
1
1
1
1
1
1
1
1
1
1
3.59246
9.81822
10.4778
10.5013
10.5408
10.5764
10.6135
10.6481
10.678
10.703
10.7289
10.7608
10.7949
10.8246
10.8513
10.8773
10.9032
10.9291
10.9565
10.9861
11.0141
11.044
11.0791
11.1159
11.1477
11.1714
11.1869
11.1973
11.2067
11.2133
11.2242
11.2416
11.2695
11.3029
11.3379
11.3689
11.3936
11.4155
11.4409
11.4734
11.5105
11.5446
11.5677
11.575
11.5713
11.5669
11.5735
11.5959
11.6311
11.6709
11.704
11.7215
11.7257
11.7266
11.7331
11.75
11.7745
11.7995
11.8183
11.829
11.8363
11.8476
11.866
11.8876
11.9074
11.9204
11.9263
11.931
11.9385
11.9504
11.9619
11.9708
11.9769
11.9822
11.9882
11.9962
12.007
12.0197
12.0318
12.0418
12.0499
12.0553
12.0598
12.0662
12.0744
12.0827
12.0895
12.0944
12.0972
12.0996
12.0973
1
1
1
1
1
1
1
1
1
1
1
1
1
1
1
1
1
1
1
1
1
1
1
1
1
1
1
1
1
1
1
1
1
1
1
1
1
1
1
1
1
1
1
1
1
1
1
1
1
1
1
1
1
1
1
1
1
1
1
1
1
1
1
1
1
1
1
1
1
1
1
1
1
1
1
1
1
1
1
1
1
1
1
1
1
1
1
1
1
1
1
1
1
1
1
1
1
1
1
1
1
3.43008
9.75986
10.4768
10.5025
10.539
10.5724
10.6072
10.6406
10.6716
10.7004
10.7311
10.7652
10.7978
10.8239
10.8463
10.8691
10.8944
10.9219
10.9522
10.9834
11.0103
11.0373
11.0697
11.1056
11.1391
11.1663
11.1859
11.1994
11.21
11.2158
11.2249
11.2397
11.2657
11.2973
11.3317
11.3634
11.3898
11.4142
11.4417
11.4744
11.5096
11.541
11.5604
11.5651
11.5623
11.562
11.5729
11.5982
11.634
11.6721
11.7013
11.7148
11.7165
11.7171
11.7254
11.7457
11.773
11.7993
11.8175
11.8263
11.8316
11.842
11.8613
11.8851
11.9068
11.9201
11.9243
11.9269
11.9332
11.9458
11.9596
11.9698
11.975
11.9765
11.9778
11.9833
11.996
12.0135
12.031
12.0448
12.0534
12.0567
12.0584
12.062
12.0675
12.0736
12.0796
12.0854
12.0909
12.0967
12.0978
1
1
1
1
1
1
1
1
1
1
1
1
1
1
1
1
1
1
1
1
1
1
1
1
1
1
1
1
1
1
1
1
1
1
1
1
1
1
1
1
1
1
1
1
1
1
1
1
1
1
1
1
1
1
1
1
1
1
1
1
1
1
1
1
1
1
1
1
1
1
1
1
1
1
1
1
1
1
1
1
1
1
1
1
1
1
1
1
1
1
1
1
1
1
1
1
1
1
1
1
1
3.2552
9.68966
10.4713
10.5001
10.5351
10.5678
10.6034
10.6371
10.6695
10.7012
10.7333
10.7664
10.7961
10.8194
10.8392
10.8611
10.8871
10.9166
10.9495
10.9809
11.0065
11.0307
11.0598
11.0934
11.1276
11.158
11.1819
11.1998
11.2126
11.2187
11.2257
11.2378
11.2614
11.2908
11.3243
11.357
11.3859
11.4133
11.4423
11.4738
11.5059
11.5333
11.5498
11.5551
11.5563
11.5607
11.5744
11.5999
11.6342
11.6691
11.6945
11.7055
11.7074
11.7093
11.7197
11.742
11.7704
11.7969
11.8147
11.8227
11.8272
11.8369
11.8563
11.8811
11.9041
11.918
11.9218
11.9236
11.9294
11.9421
11.9569
11.9679
11.972
11.97
11.9669
11.9698
11.9832
12.0051
12.0284
12.0469
12.0575
12.0599
12.0585
12.0582
12.06
12.063
12.0676
12.0746
12.0835
12.0934
12.099
1
1
1
1
1
1
1
1
1
1
1
1
1
1
1
1
1
1
1
1
1
1
1
1
1
1
1
1
1
1
1
1
1
1
1
1
1
1
1
1
1
1
1
1
1
1
1
1
1
1
1
1
1
1
1
1
1
1
1
1
1
1
1
1
1
1
1
1
1
1
1
1
1
1
1
1
1
1
1
1
1
1
1
1
1
1
1
1
1
1
1
1
1
1
1
1
1
1
1
1
1
3.08316
9.60286
10.4614
10.4948
10.5308
10.5646
10.6008
10.6352
10.6691
10.7021
10.7335
10.7638
10.7909
10.8121
10.8318
10.8547
10.8823
10.9138
10.9477
10.978
11.0026
11.0248
11.0512
11.0823
11.1164
11.1488
11.1758
11.1976
11.2129
11.22
11.226
11.2364
11.2569
11.2843
11.317
11.3507
11.3822
11.412
11.4411
11.4704
11.4986
11.5226
11.5386
11.5478
11.554
11.5619
11.5757
11.5992
11.6302
11.6612
11.6842
11.6955
11.6999
11.7043
11.7159
11.7381
11.7655
11.7915
11.8095
11.8181
11.823
11.8324
11.8509
11.8752
11.8986
11.9134
11.9184
11.9208
11.9267
11.9389
11.9537
11.9647
11.9681
11.9638
11.9575
11.9575
11.9703
11.9949
12.0233
12.0467
12.0605
12.0633
12.0594
12.0549
12.0523
12.0518
12.055
12.0631
12.0752
12.089
12.0989
1
1
1
1
1
1
1
1
1
1
1
1
1
1
1
1
1
1
1
1
1
1
1
1
1
1
1
1
1
1
1
1
1
1
1
1
1
1
1
1
1
1
1
1
1
1
1
1
1
1
1
1
1
1
1
1
1
1
1
1
1
1
1
1
1
1
1
1
1
1
1
1
1
1
1
1
1
1
1
1
1
1
1
1
1
1
1
1
1
1
1
1
1
1
1
1
1
1
1
1
1
2.90875
9.49975
10.4464
10.488
10.527
10.5612
10.5975
10.6328
10.6678
10.7009
10.7313
10.7591
10.7836
10.8044
10.825
10.8499
10.8795
10.9126
10.945
10.9736
10.9973
11.0199
11.0447
11.0743
11.1076
11.1404
11.1689
11.193
11.2103
11.2192
11.2255
11.2351
11.2528
11.2783
11.3103
11.3445
11.3777
11.4086
11.4369
11.4634
11.4884
11.5109
11.5295
11.5439
11.5547
11.5641
11.5752
11.5946
11.6212
11.6488
11.6719
11.6866
11.6951
11.7021
11.7137
11.7334
11.7584
11.7834
11.8021
11.8126
11.8191
11.8284
11.8451
11.8675
11.8902
11.9061
11.9137
11.9178
11.9244
11.9359
11.9497
11.9604
11.9635
11.9581
11.95
11.9475
11.9581
11.9833
12.0149
12.0429
12.0607
12.0654
12.0598
12.0518
12.0452
12.0418
12.0437
12.0526
12.0668
12.0829
12.0959
1
1
1
1
1
1
1
1
1
1
1
1
1
1
1
1
1
1
1
1
1
1
1
1
1
1
1
1
1
1
1
1
1
1
1
1
1
1
1
1
1
1
1
1
1
1
1
1
1
1
1
1
1
1
1
1
1
1
1
1
1
1
1
1
1
1
1
1
1
1
1
1
1
1
1
1
1
1
1
1
1
1
1
1
1
1
1
1
1
1
1
1
1
1
1
1
1
1
1
1
1
2.72611
9.37861
10.4401
10.4824
10.5237
10.5564
10.5917
10.627
10.6626
10.6964
10.7264
10.7535
10.7775
10.7987
10.8206
10.8471
10.8776
10.9101
10.9394
10.9665
10.9912
11.0151
11.0401
11.0695
11.1018
11.1336
11.1624
11.1877
11.206
11.217
11.2243
11.234
11.2491
11.2727
11.3032
11.3372
11.371
11.4021
11.4294
11.4538
11.4774
11.5006
11.5229
11.5419
11.5558
11.5649
11.5721
11.5858
11.608
11.6344
11.6598
11.6796
11.6927
11.7019
11.7123
11.7282
11.7495
11.7731
11.793
11.8063
11.815
11.8244
11.8388
11.8583
11.8791
11.8961
11.907
11.9137
11.9217
11.9326
11.9451
11.9552
11.9583
11.953
11.9445
11.94
11.9476
11.9711
12.0039
12.0354
12.0573
12.0647
12.0593
12.0487
12.039
12.0337
12.0349
12.044
12.0586
12.0746
12.0884
1
1
1
1
1
1
1
1
1
1
1
1
1
1
1
1
1
1
1
1
1
1
1
1
1
1
1
1
1
1
1
1
1
1
1
1
1
1
1
1
1
1
1
1
1
1
1
1
1
1
1
1
1
1
1
1
1
1
1
1
1
1
1
1
1
1
1
1
1
1
1
1
1
1
1
1
1
1
1
1
1
1
1
1
1
1
1
1
1
1
1
1
1
1
1
1
1
1
1
1
1
2.52301
9.23232
10.4459
10.4763
10.5178
10.5494
10.5846
10.6207
10.6567
10.6902
10.7205
10.7477
10.7719
10.7943
10.8183
10.8458
10.8763
10.9052
10.9315
10.9575
10.9841
11.0097
11.0365
11.0666
11.098
11.1282
11.1563
11.1818
11.2006
11.2136
11.2223
11.2324
11.2455
11.2672
11.2954
11.328
11.3614
11.3925
11.4197
11.4441
11.4678
11.4925
11.5176
11.5391
11.5542
11.5623
11.5658
11.5745
11.5938
11.6201
11.6488
11.6737
11.691
11.7018
11.7105
11.7225
11.7399
11.7618
11.7829
11.7991
11.8103
11.8201
11.8324
11.8485
11.8667
11.8843
11.898
11.908
11.9179
11.9285
11.9399
11.9494
11.9528
11.9483
11.9403
11.9346
11.9392
11.9594
11.991
12.0245
12.0496
12.0603
12.0563
12.0445
12.0337
12.028
12.0292
12.0376
12.0504
12.0639
12.076
1
1
1
1
1
1
1
1
1
1
1
1
1
1
1
1
1
1
1
1
1
1
1
1
1
1
1
1
1
1
1
1
1
1
1
1
1
1
1
1
1
1
1
1
1
1
1
1
1
1
1
1
1
1
1
1
1
1
1
1
1
1
1
1
1
1
1
1
1
1
1
1
1
1
1
1
1
1
1
1
1
1
1
1
1
1
1
1
1
1
1
1
1
1
1
1
1
1
1
1
1
2.31451
9.06053
10.452
10.473
10.513
10.5446
10.5798
10.6157
10.6508
10.6835
10.713
10.7405
10.7664
10.7916
10.8181
10.8462
10.8749
10.8997
10.923
10.948
10.9765
11.0042
11.0339
11.0652
11.0962
11.1245
11.1508
11.1751
11.194
11.2087
11.2188
11.2295
11.2416
11.2614
11.2864
11.3164
11.3489
11.3806
11.4095
11.4358
11.4607
11.4862
11.5117
11.5331
11.5478
11.5547
11.5563
11.5632
11.5814
11.608
11.639
11.6675
11.6879
11.6999
11.7074
11.7166
11.7309
11.7515
11.7734
11.7919
11.805
11.8151
11.8254
11.8385
11.8541
11.8712
11.8869
11.8999
11.912
11.9233
11.9341
11.943
11.9464
11.9434
11.9365
11.9303
11.9326
11.9488
11.9776
12.0109
12.0381
12.0521
12.0502
12.0391
12.0294
12.0249
12.0266
12.0334
12.0426
12.051
12.0592
1
1
1
1
1
1
1
1
1
1
1
1
1
1
1
1
1
1
1
1
1
1
1
1
1
1
1
1
1
1
1
1
1
1
1
1
1
1
1
1
1
1
1
1
1
1
1
1
1
1
1
1
1
1
1
1
1
1
1
1
1
1
1
1
1
1
1
1
1
1
1
1
1
1
1
1
1
1
1
1
1
1
1
1
1
1
1
1
1
1
1
1
1
1
1
1
1
1
1
1
1
2.11309
8.85339
10.4493
10.4681
10.508
10.5411
10.5769
10.6126
10.6465
10.6765
10.7036
10.7311
10.7596
10.7888
10.8179
10.8467
10.8734
10.8958
10.9159
10.9396
10.9691
10.9987
11.0311
11.0638
11.0949
11.1216
11.1456
11.1681
11.1868
11.2025
11.2139
11.2257
11.238
11.2556
11.2771
11.3039
11.3349
11.368
11.4002
11.4296
11.4557
11.4806
11.5039
11.5227
11.5357
11.5424
11.5453
11.5536
11.5722
11.5991
11.6306
11.6601
11.6819
11.6948
11.7021
11.71
11.7229
11.7427
11.765
11.7845
11.7985
11.8086
11.8176
11.8284
11.8419
11.8582
11.8749
11.8901
11.9041
11.9163
11.9273
11.9354
11.9386
11.9373
11.9321
11.9265
11.9274
11.94
11.9647
11.9959
12.0235
12.0399
12.041
12.0327
12.0258
12.0238
12.0261
12.0305
12.0346
12.0367
12.0394
1
1
1
1
1
1
1
1
1
1
1
1
1
1
1
1
1
1
1
1
1
1
1
1
1
1
1
1
1
1
1
1
1
1
1
1
1
1
1
1
1
1
1
1
1
1
1
1
1
1
1
1
1
1
1
1
1
1
1
1
1
1
1
1
1
1
1
1
1
1
1
1
1
1
1
1
1
1
1
1
1
1
1
1
1
1
1
1
1
1
1
1
1
1
1
1
1
1
1
1
1
1.91748
8.61524
10.4461
10.4637
10.5023
10.5378
10.5751
10.6095
10.6401
10.6679
10.6942
10.7222
10.7532
10.7853
10.8168
10.8473
10.8731
10.8938
10.9119
10.9338
10.9626
10.9934
11.0273
11.0616
11.0936
11.1194
11.1404
11.16
11.1777
11.1935
11.2061
11.2203
11.2343
11.25
11.2681
11.2915
11.3211
11.3557
11.3917
11.4245
11.4516
11.4745
11.4933
11.5079
11.5194
11.5274
11.5343
11.5464
11.5664
11.5929
11.6232
11.6515
11.6729
11.6862
11.6941
11.7025
11.7158
11.7358
11.7581
11.7774
11.791
11.8006
11.8087
11.8183
11.8305
11.8461
11.8631
11.8794
11.8945
11.9075
11.9187
11.9262
11.9291
11.9293
11.9263
11.9225
11.9233
11.9329
11.953
11.9806
12.0069
12.0246
12.0292
12.0251
12.0221
12.023
12.0258
12.0274
12.026
12.0213
12.018
1
1
1
1
1
1
1
1
1
1
1
1
1
1
1
1
1
1
1
1
1
1
1
1
1
1
1
1
1
1
1
1
1
1
1
1
1
1
1
1
1
1
1
1
1
1
1
1
1
1
1
1
1
1
1
1
1
1
1
1
1
1
1
1
1
1
1
1
1
1
1
1
1
1
1
1
1
1
1
1
1
1
1
1
1
1
1
1
1
1
1
1
1
1
1
1
1
1
1
1
1
1.72482
8.33301
10.4422
10.4635
10.4996
10.5347
10.57
10.6021
10.6315
10.6598
10.6868
10.7144
10.7466
10.7806
10.8142
10.8455
10.8717
10.893
10.9108
10.9301
10.957
10.9878
11.0224
11.0587
11.0923
11.1177
11.1358
11.1518
11.168
11.1827
11.197
11.2141
11.2306
11.2452
11.2609
11.2809
11.3087
11.3441
11.3828
11.4185
11.4462
11.4666
11.4805
11.4915
11.5023
11.5128
11.5246
11.5408
11.5622
11.5881
11.616
11.6418
11.6615
11.6748
11.684
11.6942
11.7093
11.7301
11.7521
11.7704
11.7826
11.7911
11.7986
11.8078
11.8199
11.8355
11.8525
11.869
11.8843
11.8971
11.9081
11.915
11.9177
11.9193
11.9188
11.9176
11.9195
11.9271
11.9428
11.966
11.9897
12.0078
12.0158
12.0167
12.0179
12.0214
12.0243
12.023
12.0163
12.0061
11.9977
1
1
1
1
1
1
1
1
1
1
1
1
1
1
1
1
1
1
1
1
1
1
1
1
1
1
1
1
1
1
1
1
1
1
1
1
1
1
1
1
1
1
1
1
1
1
1
1
1
1
1
1
1
1
1
1
1
1
1
1
1
1
1
1
1
1
1
1
1
1
1
1
1
1
1
1
1
1
1
1
1
1
1
1
1
1
1
1
1
1
1
1
1
1
1
1
1
1
1
1
1
1.5429
8.01317
10.4348
10.4617
10.4974
10.5296
10.5623
10.5928
10.6229
10.6529
10.6816
10.7099
10.7407
10.7734
10.8075
10.8404
10.8692
10.8922
10.9106
10.9278
10.9518
10.9813
11.0157
11.0538
11.0894
11.1152
11.1312
11.1437
11.1571
11.1703
11.1869
11.2072
11.2266
11.2417
11.2561
11.2733
11.2987
11.3332
11.3727
11.4096
11.4376
11.4559
11.4669
11.4767
11.488
11.5007
11.516
11.5349
11.5573
11.5822
11.6077
11.631
11.649
11.6623
11.6726
11.6848
11.702
11.724
11.746
11.763
11.7735
11.7805
11.7873
11.797
11.81
11.8262
11.8435
11.8595
11.8738
11.8854
11.8951
11.9012
11.9041
11.9072
11.9093
11.9114
11.915
11.9215
11.9338
11.9526
11.9734
11.9909
12.0016
12.0073
12.0123
12.0175
12.0199
12.0158
12.0054
11.9916
11.9801
1
1
1
1
1
1
1
1
1
1
1
1
1
1
1
1
1
1
1
1
1
1
1
1
1
1
1
1
1
1
1
1
1
1
1
1
1
1
1
1
1
1
1
1
1
1
1
1
1
1
1
1
1
1
1
1
1
1
1
1
1
1
1
1
1
1
1
1
1
1
1
1
1
1
1
1
1
1
1
1
1
1
1
1
1
1
1
1
1
1
1
1
1
1
1
1
1
1
1
1
1
1.37626
7.65559
10.4293
10.4624
10.4903
10.5214
10.553
10.5836
10.6152
10.6481
10.6789
10.7076
10.7377
10.7688
10.8011
10.8335
10.8641
10.8895
10.9094
10.9251
10.9459
10.9731
11.0072
11.0474
11.0855
11.1125
11.1277
11.1374
11.1477
11.1592
11.1772
11.1998
11.2217
11.238
11.2525
11.2678
11.2905
11.3227
11.3605
11.3968
11.4247
11.4426
11.454
11.4652
11.4781
11.4919
11.5081
11.5276
11.5498
11.5738
11.5976
11.6194
11.6367
11.6501
11.6612
11.6747
11.6934
11.7164
11.7387
11.7548
11.7636
11.7689
11.7752
11.7856
11.8002
11.818
11.8358
11.8509
11.8631
11.8725
11.8802
11.8855
11.8892
11.8937
11.8984
11.9035
11.9089
11.9152
11.9256
11.9411
11.9589
11.975
11.9875
11.9968
12.0044
12.0101
12.0113
12.0054
11.9931
11.9783
11.9659
1
1
1
1
1
1
1
1
1
1
1
1
1
1
1
1
1
1
1
1
1
1
1
1
1
1
1
1
1
1
1
1
1
1
1
1
1
1
1
1
1
1
1
1
1
1
1
1
1
1
1
1
1
1
1
1
1
1
1
1
1
1
1
1
1
1
1
1
1
1
1
1
1
1
1
1
1
1
1
1
1
1
1
1
1
1
1
1
1
1
1
1
1
1
1
1
1
1
1
1
1
1.2151
7.27545
10.429
10.4634
10.4872
10.5161
10.5457
10.576
10.6094
10.6444
10.6767
10.705
10.7321
10.7607
10.7917
10.8246
10.8569
10.8846
10.9063
10.9218
10.9401
10.9649
10.9982
11.0398
11.0801
11.1084
11.1241
11.132
11.1395
11.1497
11.1682
11.1921
11.2155
11.2336
11.2492
11.2636
11.2841
11.3131
11.3476
11.3814
11.409
11.428
11.4429
11.4574
11.4722
11.4863
11.5014
11.5193
11.5402
11.563
11.5859
11.6074
11.6251
11.6389
11.6503
11.664
11.6828
11.7063
11.729
11.7451
11.7528
11.7567
11.7623
11.7736
11.79
11.8098
11.8285
11.8422
11.8517
11.8582
11.8636
11.8689
11.874
11.8798
11.8866
11.8938
11.9005
11.9074
11.9175
11.9315
11.9469
11.9614
11.9741
11.9849
11.9933
11.9984
11.9984
11.9917
11.9799
11.9666
11.9553
1
1
1
1
1
1
1
1
1
1
1
1
1
1
1
1
1
1
1
1
1
1
1
1
1
1
1
1
1
1
1
1
1
1
1
1
1
1
1
1
1
1
1
1
1
1
1
1
1
1
1
1
1
1
1
1
1
1
1
1
1
1
1
1
1
1
1
1
1
1
1
1
1
1
1
1
1
1
1
1
1
1
1
1
1
1
1
1
1
1
1
1
1
1
1
1
1
1
1
1
1
1.04598
6.84131
10.4381
10.4596
10.481
10.5083
10.5357
10.5653
10.6001
10.6368
10.6708
10.6995
10.7254
10.753
10.7836
10.8175
10.8514
10.8804
10.9023
10.9168
10.9331
10.9561
10.9884
11.0307
11.0727
11.1028
11.1198
11.1274
11.1336
11.1431
11.161
11.1842
11.2075
11.2269
11.2442
11.2593
11.2786
11.3045
11.3348
11.3655
11.3923
11.4135
11.4331
11.4519
11.4687
11.4829
11.496
11.511
11.5293
11.5504
11.5729
11.5951
11.6142
11.6287
11.6401
11.6529
11.6708
11.6939
11.717
11.7337
11.7413
11.7442
11.7491
11.7609
11.779
11.8011
11.8206
11.8329
11.8393
11.8432
11.847
11.8527
11.8594
11.8665
11.8741
11.8818
11.8889
11.8968
11.9086
11.9233
11.9373
11.95
11.9615
11.9713
11.9787
11.9826
11.9817
11.9757
11.9663
11.9561
11.9474
1
1
1
1
1
1
1
1
1
1
1
1
1
1
1
1
1
1
1
1
1
1
1
1
1
1
1
1
1
1
1
1
1
1
1
1
1
1
1
1
1
1
1
1
1
1
1
1
1
1
1
1
1
1
1
1
1
1
1
1
1
1
1
1
1
1
1
1
1
1
1
1
1
1
1
1
1
1
1
1
1
1
1
1
1
1
1
1
1
1
1
1
1
1
1
1
1
1
1
1
1
1.00099
6.33763
10.3728
10.4367
10.4663
10.4975
10.5264
10.5573
10.5934
10.6309
10.6654
10.6941
10.7186
10.7454
10.7754
10.8094
10.8441
10.8738
10.8957
10.9099
10.925
10.9473
10.9794
11.0219
11.0645
11.0957
11.1141
11.1226
11.1288
11.1385
11.155
11.1759
11.1977
11.2176
11.2367
11.2536
11.2732
11.297
11.3238
11.3513
11.377
11.4002
11.4234
11.4463
11.4653
11.4797
11.4909
11.5029
11.5185
11.5378
11.56
11.5831
11.6036
11.619
11.6299
11.6411
11.6571
11.6794
11.7029
11.7205
11.7289
11.7315
11.7359
11.7476
11.767
11.7909
11.8109
11.8217
11.8258
11.8276
11.8306
11.8375
11.8459
11.8537
11.861
11.8678
11.8744
11.8834
11.8988
11.9159
11.9296
11.9405
11.9492
11.9561
11.9612
11.9633
11.9623
11.9583
11.9526
11.9464
11.9409
1
1
1
1
1
1
1
1
1
1
1
1
1
1
1
1
1
1
1
1
1
1
1
1
1
1
1
1
1
1
1
1
1
1
1
1
1
1
1
1
1
1
1
1
1
1
1
1
1
1
1
1
1
1
1
1
1
1
1
1
1
1
1
1
1
1
1
1
1
1
1
1
1
1
1
1
1
1
1
1
1
1
1
1
1
1
1
1
1
1
1
1
1
1
1
1
1
1
1
1
1
1
5.77813
10.3223
10.4216
10.4538
10.4874
10.5172
10.5489
10.5853
10.6234
10.6584
10.6876
10.7115
10.7377
10.7672
10.8011
10.836
10.8664
10.8884
10.9031
10.9175
10.9394
10.9712
11.0123
11.0542
11.0862
11.1058
11.1163
11.1241
11.1348
11.1494
11.1675
11.1868
11.2063
11.2267
11.2463
11.2675
11.2906
11.3151
11.3399
11.3642
11.3883
11.4128
11.4384
11.4597
11.4749
11.4853
11.4953
11.5087
11.5264
11.548
11.5716
11.5929
11.6087
11.6191
11.6285
11.6424
11.6635
11.6872
11.7061
11.7156
11.7186
11.7226
11.734
11.7538
11.7784
11.7981
11.8079
11.8108
11.8118
11.8153
11.8238
11.8337
11.8415
11.8474
11.8523
11.8578
11.8684
11.8881
11.9083
11.9222
11.9312
11.9366
11.9396
11.9413
11.9419
11.9416
11.9403
11.9387
11.9363
11.9343
1
1
1
1
1
1
1
1
1
1
1
1
1
1
1
1
1
1
1
1
1
1
1
1
1
1
1
1
1
1
1
1
1
1
1
1
1
1
1
1
1
1
1
1
1
1
1
1
1
1
1
1
1
1
1
1
1
1
1
1
1
1
1
1
1
1
1
1
1
1
1
1
1
1
1
1
1
1
1
1
1
1
1
1
1
1
1
1
1
1
1
1
1
1
1
1
1
1
1
1
1
1
5.20549
10.2507
10.4094
10.4432
10.4792
10.5095
10.5416
10.5779
10.6158
10.651
10.6806
10.7043
10.7298
10.7584
10.7916
10.8261
10.8571
10.8801
10.8963
10.9109
10.9323
10.9632
11.0021
11.0426
11.0749
11.0955
11.1083
11.1184
11.1304
11.1441
11.1598
11.1763
11.1942
11.2149
11.2367
11.2601
11.2839
11.3074
11.3305
11.3537
11.3778
11.4025
11.4287
11.451
11.4674
11.4782
11.4873
11.4994
11.5161
11.5373
11.5606
11.582
11.5978
11.6074
11.6152
11.6273
11.6473
11.6708
11.6906
11.7013
11.705
11.7091
11.7201
11.7393
11.7631
11.7821
11.7917
11.7946
11.7964
11.8016
11.8117
11.822
11.8292
11.833
11.8355
11.8403
11.853
11.8765
11.8993
11.9134
11.9208
11.9229
11.922
11.9206
11.9199
11.9206
11.9221
11.9243
11.9251
11.9264
1
1
1
1
1
1
1
1
1
1
1
1
1
1
1
1
1
1
1
1
1
1
1
1
1
1
1
1
1
1
1
1
1
1
1
1
1
1
1
1
1
1
1
1
1
1
1
1
1
1
1
1
1
1
1
1
1
1
1
1
1
1
1
1
1
1
1
1
1
1
1
1
1
1
1
1
1
1
1
1
1
1
1
1
1
1
1
1
1
1
1
1
1
1
1
1
1
1
1
1
1
1
4.63493
10.1408
10.4009
10.434
10.4718
10.5018
10.5342
10.5705
10.6083
10.6438
10.6739
10.6977
10.7226
10.7501
10.7817
10.8152
10.8465
10.8708
10.8882
10.9037
10.9249
10.9542
10.991
11.0302
11.0627
11.0845
11.0989
11.1108
11.1238
11.1374
11.1518
11.1662
11.1825
11.203
11.2259
11.251
11.2762
11.2999
11.3223
11.3451
11.3686
11.3929
11.4177
11.4396
11.4567
11.4686
11.4779
11.4896
11.5064
11.5272
11.55
11.5708
11.586
11.5949
11.6016
11.6124
11.6312
11.6543
11.6743
11.6861
11.6909
11.6955
11.7059
11.7238
11.7456
11.7634
11.7734
11.7773
11.7815
11.7891
11.8
11.8098
11.8157
11.8176
11.8181
11.8229
11.8384
11.8644
11.888
11.9018
11.9077
11.9075
11.9038
11.9002
11.8987
11.9002
11.9039
11.9089
11.912
11.9164
1
1
1
1
1
1
1
1
1
1
1
1
1
1
1
1
1
1
1
1
1
1
1
1
1
1
1
1
1
1
1
1
1
1
1
1
1
1
1
1
1
1
1
1
1
1
1
1
1
1
1
1
1
1
1
1
1
1
1
1
1
1
1
1
1
1
1
1
1
1
1
1
1
1
1
1
1
1
1
1
1
1
1
1
1
1
1
1
1
1
1
1
1
1
1
1
1
1
1
1
1
1
4.06699
9.98162
10.3975
10.4291
10.4683
10.4987
10.531
10.5652
10.6011
10.6353
10.6648
10.6898
10.7153
10.7418
10.7715
10.8033
10.8344
10.8599
10.8789
10.8955
10.9167
10.945
10.9802
11.0183
11.0511
11.0735
11.0882
11.1002
11.1138
11.1283
11.1432
11.157
11.1722
11.192
11.2146
11.2399
11.266
11.2908
11.3139
11.3371
11.3605
11.384
11.4071
11.4276
11.4442
11.4567
11.4667
11.4787
11.4957
11.5164
11.5387
11.5587
11.5734
11.5819
11.5881
11.5981
11.6158
11.6378
11.6576
11.6701
11.6762
11.6816
11.6915
11.7075
11.7264
11.7427
11.7534
11.7596
11.767
11.7767
11.7876
11.796
11.8005
11.8011
11.801
11.8071
11.8253
11.8517
11.8738
11.8863
11.8912
11.89
11.8854
11.8809
11.8789
11.8806
11.8854
11.8923
11.8967
11.9039
1
1
1
1
1
1
1
1
1
1
1
1
1
1
1
1
1
1
1
1
1
1
1
1
1
1
1
1
1
1
1
1
1
1
1
1
1
1
1
1
1
1
1
1
1
1
1
1
1
1
1
1
1
1
1
1
1
1
1
1
1
1
1
1
1
1
1
1
1
1
1
1
1
1
1
1
1
1
1
1
1
1
1
1
1
1
1
1
1
1
1
1
1
1
1
1
1
1
1
1
1
1
3.50179
9.7715
10.4009
10.4274
10.4661
10.4951
10.5261
10.5594
10.5941
10.6267
10.6563
10.6823
10.7081
10.7336
10.7613
10.7909
10.8215
10.8476
10.8683
10.8861
10.9072
10.9348
10.969
11.0067
11.0403
11.0632
11.0777
11.0889
11.102
11.1176
11.1338
11.1486
11.1634
11.182
11.2033
11.2275
11.2535
11.2792
11.304
11.3284
11.3521
11.3752
11.3968
11.4156
11.431
11.4432
11.4536
11.4659
11.483
11.5037
11.5257
11.5455
11.5601
11.5689
11.5753
11.5848
11.6012
11.6216
11.6407
11.6537
11.6611
11.6675
11.6769
11.6909
11.7065
11.7212
11.7329
11.7419
11.7523
11.7632
11.773
11.7798
11.7831
11.7837
11.7848
11.7937
11.814
11.8381
11.8563
11.8666
11.8711
11.8705
11.867
11.8628
11.8606
11.8618
11.8666
11.8742
11.8793
11.889
1
1
1
1
1
1
1
1
1
1
1
1
1
1
1
1
1
1
1
1
1
1
1
1
1
1
1
1
1
1
1
1
1
1
1
1
1
1
1
1
1
1
1
1
1
1
1
1
1
1
1
1
1
1
1
1
1
1
1
1
1
1
1
1
1
1
1
1
1
1
1
1
1
1
1
1
1
1
1
1
1
1
1
1
1
1
1
1
1
1
1
1
1
1
1
1
1
1
1
1
1
1
2.96021
9.49913
10.4048
10.4254
10.4646
10.4937
10.5234
10.5534
10.5854
10.6166
10.6469
10.6744
10.6996
10.7244
10.7502
10.7779
10.8077
10.834
10.8557
10.8749
10.8962
10.9234
10.9577
10.9959
11.0304
11.0541
11.0681
11.0781
11.0901
11.106
11.1233
11.1395
11.1549
11.1724
11.1922
11.2149
11.2398
11.2652
11.2909
11.3165
11.3412
11.3648
11.386
11.4039
11.4183
11.4297
11.4396
11.4512
11.4677
11.4881
11.5101
11.5304
11.5457
11.5555
11.5628
11.572
11.5869
11.6054
11.6235
11.6369
11.6459
11.6531
11.662
11.6738
11.6866
11.6998
11.7129
11.7246
11.7371
11.7478
11.7555
11.7605
11.7636
11.7655
11.77
11.7827
11.8036
11.8233
11.8359
11.8435
11.8478
11.8493
11.8484
11.8456
11.8432
11.8433
11.8472
11.8547
11.8601
11.8719
1
1
1
1
1
1
1
1
1
1
1
1
1
1
1
1
1
1
1
1
1
1
1
1
1
1
1
1
1
1
1
1
1
1
1
1
1
1
1
1
1
1
1
1
1
1
1
1
1
1
1
1
1
1
1
1
1
1
1
1
1
1
1
1
1
1
1
1
1
1
1
1
1
1
1
1
1
1
1
1
1
1
1
1
1
1
1
1
1
1
1
1
1
1
1
1
1
1
1
1
1
1
2.46579
9.15106
10.4137
10.4254
10.4619
10.4898
10.5192
10.5492
10.5785
10.608
10.6375
10.6656
10.6906
10.7145
10.7386
10.7651
10.7945
10.8211
10.8425
10.862
10.8835
10.9108
10.9457
10.985
11.0206
11.0452
11.0592
11.0686
11.0799
11.0951
11.1125
11.129
11.1447
11.1616
11.1805
11.2022
11.226
11.2506
11.2763
11.302
11.3273
11.3518
11.3735
11.3913
11.4051
11.4156
11.4245
11.4348
11.4501
11.4699
11.492
11.5133
11.5302
11.5418
11.5503
11.5595
11.5728
11.5893
11.6063
11.6201
11.6305
11.6385
11.6465
11.6564
11.6669
11.6795
11.694
11.7076
11.7206
11.7298
11.7347
11.7381
11.7421
11.7469
11.7567
11.7732
11.793
11.807
11.8135
11.8182
11.8225
11.8268
11.8292
11.8283
11.8257
11.8244
11.8269
11.8337
11.8397
11.8527
1
1
1
1
1
1
1
1
1
1
1
1
1
1
1
1
1
1
1
1
1
1
1
1
1
1
1
1
1
1
1
1
1
1
1
1
1
1
1
1
1
1
1
1
1
1
1
1
1
1
1
1
1
1
1
1
1
1
1
1
1
1
1
1
1
1
1
1
1
1
1
1
1
1
1
1
1
1
1
1
1
1
1
1
1
1
1
1
1
1
1
1
1
1
1
1
1
1
1
1
1
1
2.03032
8.72479
10.4235
10.4238
10.4577
10.4838
10.512
10.5403
10.5695
10.5998
10.6302
10.6578
10.6815
10.7032
10.7259
10.7521
10.7817
10.8089
10.8312
10.8503
10.8708
10.897
10.9316
10.9718
11.0089
11.0351
11.05
11.0602
11.0713
11.0854
11.1015
11.1171
11.1323
11.1488
11.1676
11.1894
11.2129
11.2371
11.2619
11.2864
11.3113
11.3361
11.3587
11.3774
11.3913
11.4013
11.4093
11.4183
11.4318
11.4503
11.4722
11.4945
11.5133
11.527
11.5373
11.5467
11.5586
11.5732
11.5888
11.6026
11.6143
11.6229
11.6303
11.6385
11.6478
11.6605
11.6762
11.6906
11.7022
11.7086
11.711
11.7135
11.719
11.7284
11.7442
11.764
11.7809
11.7891
11.7904
11.7919
11.7962
11.8032
11.8088
11.8098
11.8072
11.8046
11.8057
11.812
11.8183
11.8317
1
1
1
1
1
1
1
1
1
1
1
1
1
1
1
1
1
1
1
1
1
1
1
1
1
1
1
1
1
1
1
1
1
1
1
1
1
1
1
1
1
1
1
1
1
1
1
1
1
1
1
1
1
1
1
1
1
1
1
1
1
1
1
1
1
1
1
1
1
1
1
1
1
1
1
1
1
1
1
1
1
1
1
1
1
1
1
1
1
1
1
1
1
1
1
1
1
1
1
1
1
1
1.66408
8.22563
10.4273
10.4123
10.4454
10.4695
10.5003
10.5297
10.5597
10.5912
10.6221
10.6488
10.6709
10.691
10.7127
10.7395
10.7699
10.7985
10.8218
10.8411
10.8609
10.886
10.9191
10.958
10.9951
11.0227
11.0397
11.0518
11.0636
11.0768
11.0911
11.1047
11.1186
11.1343
11.1533
11.1758
11.1998
11.2239
11.2477
11.2706
11.2941
11.3186
11.3416
11.3611
11.3756
11.3857
11.3934
11.4013
11.4133
11.4304
11.4519
11.4747
11.4949
11.5107
11.5228
11.5328
11.5439
11.5567
11.5708
11.5843
11.5967
11.6063
11.6133
11.6206
11.6296
11.6428
11.659
11.6727
11.6817
11.6844
11.6846
11.6874
11.6955
11.7104
11.7315
11.7529
11.7668
11.7697