/*--------------------------------*- C++ -*----------------------------------*\
  =========                 |
  \\      /  F ield         | OpenFOAM: The Open Source CFD Toolbox
   \\    /   O peration     | Website:  https://openfoam.org
    \\  /    A nd           | Version:  7
     \\/     M anipulation  |
\*---------------------------------------------------------------------------*/
FoamFile
{
    version     2.0;
    format      ascii;
    class       volScalarField;
    location    "1.8";
    object      rho;
}
// * * * * * * * * * * * * * * * * * * * * * * * * * * * * * * * * * * * * * //

dimensions      [1 -3 0 0 0 0 0];

internalField   nonuniform List<scalar> 
258048
(
1.40001
1.40001
1.40001
1.40001
1.40001
1.40001
1.40001
1.40001
1.40001
1.40001
1.40001
1.40001
1.40001
1.40001
1.40001
1.40001
1.40001
1.40001
1.40001
1.40001
1.40001
1.40001
1.40001
1.40001
1.40001
1.40001
1.40001
1.40001
1.40001
1.40001
1.40001
1.40001
1.40001
1.40001
1.40001
1.40001
1.40001
1.40001
1.40001
1.40001
1.40001
1.40001
1.40001
1.40001
1.40001
1.40001
1.40001
1.40001
1.40001
1.40001
1.40001
1.40001
1.40001
1.40001
1.40001
1.40001
1.40001
1.40001
1.40001
1.40001
1.40001
1.40001
1.40001
1.40001
1.40001
1.40001
1.40001
1.40001
1.40001
1.40001
1.40001
1.40001
1.40001
1.40001
1.40001
1.40001
1.40001
1.40001
1.40001
1.40001
1.40001
1.40001
1.40001
1.40001
1.40001
1.40001
1.40001
1.40001
1.40001
1.40001
1.40001
1.40001
1.40001
1.40001
1.40001
1.40001
1.40001
1.40001
1.40001
1.40001
1.40001
2.96491
5.26919
5.4372
5.44773
5.45779
5.46425
5.47252
5.48984
5.50713
5.52144
5.53034
5.53249
5.53194
5.53462
5.54386
5.55928
5.57656
5.59162
5.60293
5.61125
5.61888
5.62862
5.64248
5.66034
5.68019
5.69848
5.71181
5.71774
5.71567
5.70911
5.70372
5.70355
5.71096
5.72281
5.73594
5.74791
5.75826
5.76696
5.77408
5.77967
5.78429
5.78882
5.7946
5.80288
5.81356
5.82463
5.83407
5.84036
5.84316
5.8464
5.85515
5.86855
5.88316
5.89452
5.8986
5.89386
5.88502
5.87846
5.87999
5.88998
5.9056
5.92115
5.93134
5.93489
5.93461
5.93388
5.93516
5.93915
5.94491
5.94983
5.95164
5.95106
5.94939
5.94745
5.94613
5.9465
5.94918
5.95408
5.96034
5.96597
5.96883
5.96824
5.96354
5.95465
5.94122
5.92129
5.8941
5.86349
5.83825
5.82423
5.82349
1.40001
1.40001
1.40001
1.40001
1.40001
1.40001
1.40001
1.40001
1.40001
1.40001
1.40001
1.40001
1.40001
1.40001
1.40001
1.40001
1.40001
1.40001
1.40001
1.40001
1.40001
1.40001
1.40001
1.40001
1.40001
1.40001
1.40001
1.40001
1.40001
1.40001
1.40001
1.40001
1.40001
1.40001
1.40001
1.40001
1.40001
1.40001
1.40001
1.40001
1.40001
1.40001
1.40001
1.40001
1.40001
1.40001
1.40001
1.40001
1.40001
1.40001
1.40001
1.40001
1.40001
1.40001
1.40001
1.40001
1.40001
1.40001
1.40001
1.40001
1.40001
1.40001
1.40001
1.40001
1.40001
1.40001
1.40001
1.40001
1.40001
1.40001
1.40001
1.40001
1.40001
1.40001
1.40001
1.40001
1.40001
1.40001
1.40001
1.40001
1.40001
1.40001
1.40001
1.40001
1.40001
1.40001
1.40001
1.40001
1.40001
1.40001
1.40001
1.40001
1.40001
1.40001
1.40001
1.40001
1.40001
1.40001
1.40001
1.40001
1.40001
2.95838
5.25969
5.43837
5.44575
5.45741
5.46716
5.47775
5.49301
5.50899
5.52112
5.52791
5.52951
5.53001
5.53438
5.54503
5.56079
5.57773
5.59236
5.60351
5.61199
5.62013
5.63037
5.6444
5.66188
5.68078
5.6979
5.7104
5.71623
5.71467
5.70863
5.70358
5.70349
5.71072
5.72264
5.73611
5.7485
5.75897
5.7675
5.77423
5.77961
5.78441
5.78954
5.79595
5.80444
5.81446
5.82443
5.83307
5.83939
5.84302
5.8475
5.85709
5.87018
5.88354
5.89355
5.89697
5.89264
5.88493
5.87948
5.8814
5.89087
5.90532
5.91981
5.92961
5.93358
5.9341
5.93396
5.93556
5.93945
5.94471
5.94909
5.95073
5.95032
5.94919
5.94799
5.94735
5.94795
5.9501
5.95395
5.95917
5.96416
5.96693
5.96671
5.96263
5.95444
5.94167
5.92221
5.89516
5.86425
5.83831
5.82345
5.82161
1.40001
1.40001
1.40001
1.40001
1.40001
1.40001
1.40001
1.40001
1.40001
1.40001
1.40001
1.40001
1.40001
1.40001
1.40001
1.40001
1.40001
1.40001
1.40001
1.40001
1.40001
1.40001
1.40001
1.40001
1.40001
1.40001
1.40001
1.40001
1.40001
1.40001
1.40001
1.40001
1.40001
1.40001
1.40001
1.40001
1.40001
1.40001
1.40001
1.40001
1.40001
1.40001
1.40001
1.40001
1.40001
1.40001
1.40001
1.40001
1.40001
1.40001
1.40001
1.40001
1.40001
1.40001
1.40001
1.40001
1.40001
1.40001
1.40001
1.40001
1.40001
1.40001
1.40001
1.40001
1.40001
1.40001
1.40001
1.40001
1.40001
1.40001
1.40001
1.40001
1.40001
1.40001
1.40001
1.40001
1.40001
1.40001
1.40001
1.40001
1.40001
1.40001
1.40001
1.40001
1.40001
1.40001
1.40001
1.40001
1.40001
1.40001
1.40001
1.40001
1.40001
1.40001
1.40001
1.40001
1.40001
1.40001
1.40001
1.40001
1.40001
2.94565
5.25073
5.43716
5.44132
5.45371
5.46685
5.48192
5.49739
5.51146
5.52058
5.52446
5.52503
5.52689
5.53365
5.54609
5.56234
5.57888
5.59296
5.60387
5.61267
5.62151
5.63255
5.64705
5.66427
5.68204
5.69747
5.70846
5.71385
5.71293
5.70769
5.70327
5.70333
5.71045
5.72236
5.73608
5.74893
5.75967
5.76799
5.77416
5.77905
5.78394
5.78971
5.79718
5.80623
5.81543
5.82404
5.83149
5.83748
5.84224
5.84875
5.85953
5.87241
5.88415
5.89215
5.89444
5.89052
5.88441
5.88068
5.88338
5.89236
5.90535
5.91827
5.92739
5.93184
5.93331
5.93396
5.93587
5.93964
5.94427
5.94793
5.94928
5.94901
5.94848
5.94833
5.9489
5.95018
5.95191
5.95437
5.95789
5.9616
5.96407
5.96434
5.96118
5.9541
5.94224
5.92331
5.89626
5.86492
5.8382
5.82262
5.81947
1.40001
1.40001
1.40001
1.40001
1.40001
1.40001
1.40001
1.40001
1.40001
1.40001
1.40001
1.40001
1.40001
1.40001
1.40001
1.40001
1.40001
1.40001
1.40001
1.40001
1.40001
1.40001
1.40001
1.40001
1.40001
1.40001
1.40001
1.40001
1.40001
1.40001
1.40001
1.40001
1.40001
1.40001
1.40001
1.40001
1.40001
1.40001
1.40001
1.40001
1.40001
1.40001
1.40001
1.40001
1.40001
1.40001
1.40001
1.40001
1.40001
1.40001
1.40001
1.40001
1.40001
1.40001
1.40001
1.40001
1.40001
1.40001
1.40001
1.40001
1.40001
1.40001
1.40001
1.40001
1.40001
1.40001
1.40001
1.40001
1.40001
1.40001
1.40001
1.40001
1.40001
1.40001
1.40001
1.40001
1.40001
1.40001
1.40001
1.40001
1.40001
1.40001
1.40001
1.40001
1.40001
1.40001
1.40001
1.40001
1.40001
1.40001
1.40001
1.40001
1.40001
1.40001
1.40001
1.40001
1.40001
1.40001
1.40001
1.40001
1.40001
2.92362
5.23802
5.43195
5.43688
5.45285
5.46885
5.48554
5.50078
5.51247
5.51853
5.51983
5.52023
5.52433
5.53387
5.54794
5.56422
5.57996
5.59325
5.60386
5.61311
5.62294
5.63503
5.65007
5.66696
5.68348
5.69708
5.70623
5.71083
5.71053
5.70615
5.70256
5.70299
5.71025
5.72238
5.73651
5.74969
5.76032
5.76809
5.77355
5.77822
5.78376
5.79072
5.79947
5.80862
5.81617
5.82299
5.82925
5.83518
5.84173
5.85093
5.86293
5.87519
5.88468
5.89009
5.89108
5.88788
5.88388
5.88226
5.88571
5.8939
5.90505
5.91622
5.92477
5.92989
5.93255
5.93416
5.93621
5.93953
5.94334
5.94631
5.94756
5.94765
5.94788
5.94888
5.95066
5.95232
5.95351
5.95463
5.95638
5.95869
5.96072
5.96134
5.95911
5.95335
5.94263
5.92443
5.89743
5.86555
5.83791
5.82144
5.81676
1.40001
1.40001
1.40001
1.40001
1.40001
1.40001
1.40001
1.40001
1.40001
1.40001
1.40001
1.40001
1.40001
1.40001
1.40001
1.40001
1.40001
1.40001
1.40001
1.40001
1.40001
1.40001
1.40001
1.40001
1.40001
1.40001
1.40001
1.40001
1.40001
1.40001
1.40001
1.40001
1.40001
1.40001
1.40001
1.40001
1.40001
1.40001
1.40001
1.40001
1.40001
1.40001
1.40001
1.40001
1.40001
1.40001
1.40001
1.40001
1.40001
1.40001
1.40001
1.40001
1.40001
1.40001
1.40001
1.40001
1.40001
1.40001
1.40001
1.40001
1.40001
1.40001
1.40001
1.40001
1.40001
1.40001
1.40001
1.40001
1.40001
1.40001
1.40001
1.40001
1.40001
1.40001
1.40001
1.40001
1.40001
1.40001
1.40001
1.40001
1.40001
1.40001
1.40001
1.40001
1.40001
1.40001
1.40001
1.40001
1.40001
1.40001
1.40001
1.40001
1.40001
1.40001
1.40001
1.40001
1.40001
1.40001
1.40001
1.40001
1.40001
2.89242
5.22522
5.42531
5.43402
5.45235
5.46973
5.48722
5.50215
5.51204
5.51571
5.51568
5.51723
5.52376
5.53532
5.55007
5.56584
5.58064
5.59315
5.60349
5.6132
5.62402
5.63709
5.65261
5.66924
5.68472
5.69688
5.70458
5.70819
5.70804
5.7043
5.70146
5.70242
5.71008
5.72263
5.73711
5.75032
5.76057
5.76763
5.77243
5.77721
5.78373
5.7922
5.80207
5.81079
5.81663
5.82155
5.82659
5.83284
5.84159
5.85345
5.86658
5.87786
5.8848
5.88752
5.88729
5.885
5.88325
5.88383
5.888
5.89521
5.90444
5.91401
5.9223
5.92834
5.9322
5.93448
5.93629
5.93887
5.94186
5.94438
5.94577
5.94644
5.94753
5.94935
5.95173
5.95354
5.95437
5.95466
5.95511
5.9562
5.95767
5.95832
5.95675
5.95214
5.94254
5.92502
5.89811
5.86578
5.83727
5.82016
5.81421
1.40001
1.40001
1.40001
1.40001
1.40001
1.40001
1.40001
1.40001
1.40001
1.40001
1.40001
1.40001
1.40001
1.40001
1.40001
1.40001
1.40001
1.40001
1.40001
1.40001
1.40001
1.40001
1.40001
1.40001
1.40001
1.40001
1.40001
1.40001
1.40001
1.40001
1.40001
1.40001
1.40001
1.40001
1.40001
1.40001
1.40001
1.40001
1.40001
1.40001
1.40001
1.40001
1.40001
1.40001
1.40001
1.40001
1.40001
1.40001
1.40001
1.40001
1.40001
1.40001
1.40001
1.40001
1.40001
1.40001
1.40001
1.40001
1.40001
1.40001
1.40001
1.40001
1.40001
1.40001
1.40001
1.40001
1.40001
1.40001
1.40001
1.40001
1.40001
1.40001
1.40001
1.40001
1.40001
1.40001
1.40001
1.40001
1.40001
1.40001
1.40001
1.40001
1.40001
1.40001
1.40001
1.40001
1.40001
1.40001
1.40001
1.40001
1.40001
1.40001
1.40001
1.40001
1.40001
1.40001
1.40001
1.40001
1.40001
1.40001
1.40001
2.84924
5.21325
5.42102
5.4325
5.45128
5.46873
5.48625
5.50102
5.50998
5.51276
5.51324
5.5167
5.52539
5.53783
5.552
5.56668
5.58045
5.59232
5.60264
5.61295
5.62443
5.63815
5.65402
5.67044
5.68522
5.69658
5.70368
5.70674
5.7064
5.70286
5.70025
5.70173
5.70979
5.72272
5.73736
5.75039
5.76015
5.76655
5.77111
5.77643
5.78419
5.79409
5.80425
5.81177
5.81611
5.81946
5.82367
5.83101
5.8423
5.8562
5.86988
5.87958
5.88388
5.88436
5.88339
5.88225
5.8825
5.88511
5.8899
5.89606
5.90349
5.91179
5.92021
5.92736
5.93234
5.93492
5.93611
5.93765
5.93985
5.94229
5.9442
5.94566
5.9473
5.94929
5.95158
5.95335
5.95408
5.95422
5.95428
5.95468
5.95562
5.95591
5.95446
5.95054
5.94176
5.92489
5.89819
5.86555
5.83631
5.81887
5.81218
1.40001
1.40001
1.40001
1.40001
1.40001
1.40001
1.40001
1.40001
1.40001
1.40001
1.40001
1.40001
1.40001
1.40001
1.40001
1.40001
1.40001
1.40001
1.40001
1.40001
1.40001
1.40001
1.40001
1.40001
1.40001
1.40001
1.40001
1.40001
1.40001
1.40001
1.40001
1.40001
1.40001
1.40001
1.40001
1.40001
1.40001
1.40001
1.40001
1.40001
1.40001
1.40001
1.40001
1.40001
1.40001
1.40001
1.40001
1.40001
1.40001
1.40001
1.40001
1.40001
1.40001
1.40001
1.40001
1.40001
1.40001
1.40001
1.40001
1.40001
1.40001
1.40001
1.40001
1.40001
1.40001
1.40001
1.40001
1.40001
1.40001
1.40001
1.40001
1.40001
1.40001
1.40001
1.40001
1.40001
1.40001
1.40001
1.40001
1.40001
1.40001
1.40001
1.40001
1.40001
1.40001
1.40001
1.40001
1.40001
1.40001
1.40001
1.40001
1.40001
1.40001
1.40001
1.40001
1.40001
1.40001
1.40001
1.40001
1.40001
1.40001
2.7956
5.20185
5.41902
5.43127
5.44963
5.46666
5.48388
5.49829
5.50726
5.51077
5.51289
5.51825
5.52814
5.54003
5.55296
5.56646
5.57939
5.591
5.60176
5.61282
5.62436
5.63782
5.65363
5.67008
5.68481
5.69614
5.70332
5.70643
5.70601
5.70236
5.69947
5.70085
5.70889
5.72184
5.73651
5.74951
5.75899
5.7652
5.77008
5.77624
5.78497
5.79539
5.80513
5.81135
5.81438
5.81678
5.82132
5.83041
5.84383
5.85893
5.87217
5.87984
5.8818
5.88078
5.87951
5.87961
5.88198
5.88627
5.89128
5.89639
5.9023
5.90973
5.91852
5.92681
5.93279
5.93546
5.9358
5.93606
5.93748
5.94018
5.94296
5.94523
5.94692
5.94844
5.95001
5.95147
5.95246
5.95321
5.95389
5.95433
5.95479
5.95444
5.95264
5.94876
5.94024
5.92365
5.89708
5.86442
5.83508
5.81777
5.81101
1.40001
1.40001
1.40001
1.40001
1.40001
1.40001
1.40001
1.40001
1.40001
1.40001
1.40001
1.40001
1.40001
1.40001
1.40001
1.40001
1.40001
1.40001
1.40001
1.40001
1.40001
1.40001
1.40001
1.40001
1.40001
1.40001
1.40001
1.40001
1.40001
1.40001
1.40001
1.40001
1.40001
1.40001
1.40001
1.40001
1.40001
1.40001
1.40001
1.40001
1.40001
1.40001
1.40001
1.40001
1.40001
1.40001
1.40001
1.40001
1.40001
1.40001
1.40001
1.40001
1.40001
1.40001
1.40001
1.40001
1.40001
1.40001
1.40001
1.40001
1.40001
1.40001
1.40001
1.40001
1.40001
1.40001
1.40001
1.40001
1.40001
1.40001
1.40001
1.40001
1.40001
1.40001
1.40001
1.40001
1.40001
1.40001
1.40001
1.40001
1.40001
1.40001
1.40001
1.40001
1.40001
1.40001
1.40001
1.40001
1.40001
1.40001
1.40001
1.40001
1.40001
1.40001
1.40001
1.40001
1.40001
1.40001
1.40001
1.40001
1.40001
2.73123
5.18895
5.41833
5.43043
5.44774
5.46386
5.48051
5.49483
5.50467
5.50987
5.51397
5.52093
5.53094
5.54186
5.55343
5.5656
5.57785
5.58964
5.60121
5.61291
5.62398
5.63629
5.65134
5.66777
5.68298
5.69513
5.70313
5.70685
5.70664
5.70284
5.69949
5.70008
5.70738
5.71988
5.7344
5.74749
5.75719
5.7639
5.76964
5.7765
5.78545
5.79555
5.80443
5.80939
5.81174
5.81442
5.82027
5.83105
5.84564
5.86077
5.87276
5.87847
5.87869
5.87694
5.87587
5.87743
5.88162
5.88699
5.89198
5.89621
5.90088
5.90775
5.91699
5.92632
5.93309
5.9358
5.9353
5.9344
5.93517
5.93827
5.94207
5.94503
5.94648
5.94696
5.94719
5.94788
5.94951
5.95175
5.95377
5.95494
5.95518
5.95403
5.95144
5.94699
5.93811
5.92118
5.89449
5.86214
5.83342
5.81679
5.8106
1.40001
1.40001
1.40001
1.40001
1.40001
1.40001
1.40001
1.40001
1.40001
1.40001
1.40001
1.40001
1.40001
1.40001
1.40001
1.40001
1.40001
1.40001
1.40001
1.40001
1.40001
1.40001
1.40001
1.40001
1.40001
1.40001
1.40001
1.40001
1.40001
1.40001
1.40001
1.40001
1.40001
1.40001
1.40001
1.40001
1.40001
1.40001
1.40001
1.40001
1.40001
1.40001
1.40001
1.40001
1.40001
1.40001
1.40001
1.40001
1.40001
1.40001
1.40001
1.40001
1.40001
1.40001
1.40001
1.40001
1.40001
1.40001
1.40001
1.40001
1.40001
1.40001
1.40001
1.40001
1.40001
1.40001
1.40001
1.40001
1.40001
1.40001
1.40001
1.40001
1.40001
1.40001
1.40001
1.40001
1.40001
1.40001
1.40001
1.40001
1.40001
1.40001
1.40001
1.40001
1.40001
1.40001
1.40001
1.40001
1.40001
1.40001
1.40001
1.40001
1.40001
1.40001
1.40001
1.40001
1.40001
1.40001
1.40001
1.40001
1.40001
2.65654
5.17369
5.41733
5.42981
5.44582
5.46133
5.47767
5.4924
5.50342
5.51041
5.51615
5.52353
5.53286
5.54274
5.55303
5.56428
5.5765
5.58893
5.60137
5.6133
5.62342
5.63412
5.64774
5.66365
5.67937
5.69283
5.70243
5.7074
5.70795
5.70409
5.70009
5.69946
5.70554
5.71706
5.73121
5.74453
5.75495
5.76274
5.76948
5.7767
5.7852
5.79453
5.8022
5.80629
5.80912
5.81321
5.82059
5.83239
5.84701
5.86136
5.87177
5.87584
5.87506
5.87317
5.87283
5.87577
5.88121
5.88714
5.89198
5.89554
5.89936
5.90585
5.91541
5.92551
5.93293
5.93575
5.93463
5.93296
5.93329
5.93669
5.94134
5.94477
5.94585
5.94499
5.94357
5.94337
5.94555
5.94953
5.95352
5.95598
5.95638
5.9545
5.95083
5.94534
5.93556
5.91791
5.89098
5.85904
5.83132
5.81583
5.8108
1.40001
1.40001
1.40001
1.40001
1.40001
1.40001
1.40001
1.40001
1.40001
1.40001
1.40001
1.40001
1.40001
1.40001
1.40001
1.40001
1.40001
1.40001
1.40001
1.40001
1.40001
1.40001
1.40001
1.40001
1.40001
1.40001
1.40001
1.40001
1.40001
1.40001
1.40001
1.40001
1.40001
1.40001
1.40001
1.40001
1.40001
1.40001
1.40001
1.40001
1.40001
1.40001
1.40001
1.40001
1.40001
1.40001
1.40001
1.40001
1.40001
1.40001
1.40001
1.40001
1.40001
1.40001
1.40001
1.40001
1.40001
1.40001
1.40001
1.40001
1.40001
1.40001
1.40001
1.40001
1.40001
1.40001
1.40001
1.40001
1.40001
1.40001
1.40001
1.40001
1.40001
1.40001
1.40001
1.40001
1.40001
1.40001
1.40001
1.40001
1.40001
1.40001
1.40001
1.40001
1.40001
1.40001
1.40001
1.40001
1.40001
1.40001
1.40001
1.40001
1.40001
1.40001
1.40001
1.40001
1.40001
1.40001
1.40001
1.40001
1.40001
2.57471
5.1524
5.41437
5.4285
5.44422
5.45972
5.47665
5.4918
5.50374
5.51204
5.51824
5.52505
5.53334
5.54248
5.55215
5.56332
5.57601
5.58921
5.60238
5.61392
5.62287
5.63181
5.64369
5.65852
5.67444
5.68911
5.70046
5.70729
5.70909
5.70569
5.70101
5.6991
5.70375
5.7139
5.7275
5.74114
5.75257
5.76165
5.7692
5.77634
5.78401
5.79208
5.79884
5.80333
5.80765
5.81339
5.8218
5.83362
5.84757
5.86063
5.86941
5.87231
5.87142
5.86995
5.87047
5.87435
5.88035
5.88649
5.89127
5.89452
5.89799
5.9042
5.91375
5.92419
5.93207
5.9351
5.9338
5.93182
5.93195
5.93542
5.94049
5.94412
5.94482
5.94278
5.9398
5.9386
5.94104
5.94655
5.95263
5.95674
5.95782
5.95558
5.9508
5.94389
5.93277
5.91409
5.88681
5.85536
5.82883
5.81477
5.81128
1.40001
1.40001
1.40001
1.40001
1.40001
1.40001
1.40001
1.40001
1.40001
1.40001
1.40001
1.40001
1.40001
1.40001
1.40001
1.40001
1.40001
1.40001
1.40001
1.40001
1.40001
1.40001
1.40001
1.40001
1.40001
1.40001
1.40001
1.40001
1.40001
1.40001
1.40001
1.40001
1.40001
1.40001
1.40001
1.40001
1.40001
1.40001
1.40001
1.40001
1.40001
1.40001
1.40001
1.40001
1.40001
1.40001
1.40001
1.40001
1.40001
1.40001
1.40001
1.40001
1.40001
1.40001
1.40001
1.40001
1.40001
1.40001
1.40001
1.40001
1.40001
1.40001
1.40001
1.40001
1.40001
1.40001
1.40001
1.40001
1.40001
1.40001
1.40001
1.40001
1.40001
1.40001
1.40001
1.40001
1.40001
1.40001
1.40001
1.40001
1.40001
1.40001
1.40001
1.40001
1.40001
1.40001
1.40001
1.40001
1.40001
1.40001
1.40001
1.40001
1.40001
1.40001
1.40001
1.40001
1.40001
1.40001
1.40001
1.40001
1.40001
2.4919
5.12217
5.40991
5.42699
5.4438
5.45982
5.47685
5.49206
5.50463
5.51351
5.51949
5.52537
5.53284
5.54148
5.55141
5.5632
5.5767
5.59068
5.60402
5.61448
5.62218
5.62949
5.63969
5.65335
5.66921
5.68471
5.69747
5.7062
5.70942
5.70687
5.70201
5.69908
5.70211
5.71085
5.72383
5.73774
5.7502
5.76038
5.76833
5.77499
5.78158
5.78861
5.79542
5.80153
5.80762
5.8146
5.82306
5.83404
5.84678
5.85825
5.86584
5.86853
5.86832
5.86768
5.86874
5.87279
5.87867
5.88478
5.88968
5.89318
5.89678
5.90279
5.91195
5.92221
5.93025
5.93359
5.93263
5.93084
5.93101
5.93438
5.93943
5.94306
5.9435
5.94067
5.93651
5.93433
5.93653
5.94299
5.95086
5.95672
5.95885
5.95672
5.95108
5.94265
5.92997
5.91014
5.88244
5.85146
5.82604
5.8133
5.81129
1.40001
1.40001
1.40001
1.40001
1.40001
1.40001
1.40001
1.40001
1.40001
1.40001
1.40001
1.40001
1.40001
1.40001
1.40001
1.40001
1.40001
1.40001
1.40001
1.40001
1.40001
1.40001
1.40001
1.40001
1.40001
1.40001
1.40001
1.40001
1.40001
1.40001
1.40001
1.40001
1.40001
1.40001
1.40001
1.40001
1.40001
1.40001
1.40001
1.40001
1.40001
1.40001
1.40001
1.40001
1.40001
1.40001
1.40001
1.40001
1.40001
1.40001
1.40001
1.40001
1.40001
1.40001
1.40001
1.40001
1.40001
1.40001
1.40001
1.40001
1.40001
1.40001
1.40001
1.40001
1.40001
1.40001
1.40001
1.40001
1.40001
1.40001
1.40001
1.40001
1.40001
1.40001
1.40001
1.40001
1.40001
1.40001
1.40001
1.40001
1.40001
1.40001
1.40001
1.40001
1.40001
1.40001
1.40001
1.40001
1.40001
1.40001
1.40001
1.40001
1.40001
1.40001
1.40001
1.40001
1.40001
1.40001
1.40001
1.40001
1.40001
2.40626
5.08557
5.40544
5.4262
5.44422
5.46024
5.4769
5.49216
5.50507
5.51417
5.51999
5.52514
5.53186
5.54059
5.55119
5.56392
5.57833
5.59292
5.60532
5.61444
5.62077
5.62723
5.63626
5.64905
5.66458
5.68036
5.69402
5.70418
5.70877
5.70731
5.70281
5.6993
5.70078
5.70811
5.72043
5.73448
5.74763
5.75841
5.76639
5.77248
5.77826
5.78497
5.79286
5.80106
5.8087
5.81624
5.82371
5.83311
5.84422
5.85434
5.86159
5.86512
5.86618
5.86641
5.86756
5.87096
5.87615
5.88204
5.88731
5.89156
5.89572
5.90161
5.91006
5.91963
5.92744
5.93112
5.93098
5.92981
5.93023
5.93339
5.93813
5.94158
5.94193
5.93876
5.9339
5.93085
5.93233
5.93892
5.94795
5.95549
5.95893
5.9574
5.95123
5.94153
5.9274
5.90656
5.87852
5.84788
5.8232
5.81128
5.81033
1.40001
1.40001
1.40001
1.40001
1.40001
1.40001
1.40001
1.40001
1.40001
1.40001
1.40001
1.40001
1.40001
1.40001
1.40001
1.40001
1.40001
1.40001
1.40001
1.40001
1.40001
1.40001
1.40001
1.40001
1.40001
1.40001
1.40001
1.40001
1.40001
1.40001
1.40001
1.40001
1.40001
1.40001
1.40001
1.40001
1.40001
1.40001
1.40001
1.40001
1.40001
1.40001
1.40001
1.40001
1.40001
1.40001
1.40001
1.40001
1.40001
1.40001
1.40001
1.40001
1.40001
1.40001
1.40001
1.40001
1.40001
1.40001
1.40001
1.40001
1.40001
1.40001
1.40001
1.40001
1.40001
1.40001
1.40001
1.40001
1.40001
1.40001
1.40001
1.40001
1.40001
1.40001
1.40001
1.40001
1.40001
1.40001
1.40001
1.40001
1.40001
1.40001
1.40001
1.40001
1.40001
1.40001
1.40001
1.40001
1.40001
1.40001
1.40001
1.40001
1.40001
1.40001
1.40001
1.40001
1.40001
1.40001
1.40001
1.40001
1.40001
2.31608
5.04518
5.40639
5.42619
5.44442
5.45944
5.47544
5.49075
5.50411
5.51376
5.51974
5.52492
5.53173
5.54085
5.55216
5.56568
5.58042
5.59454
5.60535
5.61303
5.61867
5.62477
5.63337
5.64582
5.66096
5.67656
5.69066
5.70183
5.70749
5.70726
5.70337
5.69967
5.69973
5.70559
5.71699
5.73083
5.74422
5.7553
5.76335
5.76918
5.7748
5.78198
5.79139
5.80131
5.80995
5.81741
5.82352
5.83074
5.84025
5.84968
5.85738
5.86235
5.86485
5.8658
5.86666
5.86894
5.87303
5.87856
5.88435
5.88965
5.89465
5.9005
5.90807
5.91656
5.9237
5.92772
5.92867
5.92836
5.92928
5.9323
5.9366
5.93985
5.94022
5.93708
5.93202
5.92831
5.92877
5.93467
5.94409
5.95294
5.95775
5.95711
5.95104
5.9404
5.92519
5.9037
5.87547
5.84493
5.82039
5.80848
5.80781
1.40001
1.40001
1.40001
1.40001
1.40001
1.40001
1.40001
1.40001
1.40001
1.40001
1.40001
1.40001
1.40001
1.40001
1.40001
1.40001
1.40001
1.40001
1.40001
1.40001
1.40001
1.40001
1.40001
1.40001
1.40001
1.40001
1.40001
1.40001
1.40001
1.40001
1.40001
1.40001
1.40001
1.40001
1.40001
1.40001
1.40001
1.40001
1.40001
1.40001
1.40001
1.40001
1.40001
1.40001
1.40001
1.40001
1.40001
1.40001
1.40001
1.40001
1.40001
1.40001
1.40001
1.40001
1.40001
1.40001
1.40001
1.40001
1.40001
1.40001
1.40001
1.40001
1.40001
1.40001
1.40001
1.40001
1.40001
1.40001
1.40001
1.40001
1.40001
1.40001
1.40001
1.40001
1.40001
1.40001
1.40001
1.40001
1.40001
1.40001
1.40001
1.40001
1.40001
1.40001
1.40001
1.40001
1.40001
1.40001
1.40001
1.40001
1.40001
1.40001
1.40001
1.40001
1.40001
1.40001
1.40001
1.40001
1.40001
1.40001
1.40001
2.21507
4.99846
5.41254
5.4255
5.44278
5.45705
5.47301
5.48888
5.50276
5.51273
5.5193
5.52502
5.53228
5.54211
5.55436
5.56818
5.58265
5.59501
5.60402
5.61034
5.61572
5.62179
5.63057
5.64309
5.65802
5.67328
5.68749
5.69926
5.70574
5.70674
5.70362
5.69989
5.69871
5.70328
5.71333
5.72649
5.73983
5.75123
5.75968
5.7659
5.77198
5.77999
5.79058
5.8014
5.81035
5.81742
5.82221
5.82762
5.83593
5.84506
5.8535
5.85997
5.86376
5.86521
5.86563
5.86674
5.86961
5.87472
5.88106
5.8875
5.89339
5.8993
5.90604
5.91327
5.91948
5.92363
5.92552
5.92631
5.92797
5.93098
5.93487
5.93792
5.93838
5.93556
5.93067
5.92648
5.92588
5.93059
5.93957
5.94911
5.95511
5.95556
5.94994
5.93888
5.9233
5.90168
5.87346
5.84272
5.8176
5.80478
5.80356
1.40001
1.40001
1.40001
1.40001
1.40001
1.40001
1.40001
1.40001
1.40001
1.40001
1.40001
1.40001
1.40001
1.40001
1.40001
1.40001
1.40001
1.40001
1.40001
1.40001
1.40001
1.40001
1.40001
1.40001
1.40001
1.40001
1.40001
1.40001
1.40001
1.40001
1.40001
1.40001
1.40001
1.40001
1.40001
1.40001
1.40001
1.40001
1.40001
1.40001
1.40001
1.40001
1.40001
1.40001
1.40001
1.40001
1.40001
1.40001
1.40001
1.40001
1.40001
1.40001
1.40001
1.40001
1.40001
1.40001
1.40001
1.40001
1.40001
1.40001
1.40001
1.40001
1.40001
1.40001
1.40001
1.40001
1.40001
1.40001
1.40001
1.40001
1.40001
1.40001
1.40001
1.40001
1.40001
1.40001
1.40001
1.40001
1.40001
1.40001
1.40001
1.40001
1.40001
1.40001
1.40001
1.40001
1.40001
1.40001
1.40001
1.40001
1.40001
1.40001
1.40001
1.40001
1.40001
1.40001
1.40001
1.40001
1.40001
1.40001
1.40001
2.11018
4.94174
5.418
5.4255
5.44135
5.45558
5.47165
5.48747
5.50116
5.51117
5.51816
5.52487
5.53343
5.54458
5.55766
5.57139
5.58465
5.59477
5.60167
5.60664
5.61201
5.61829
5.62788
5.64097
5.65596
5.67078
5.68462
5.69642
5.70347
5.70551
5.70317
5.69957
5.69762
5.70098
5.70942
5.72149
5.73455
5.74642
5.75589
5.76326
5.77017
5.77883
5.78974
5.80045
5.80919
5.81583
5.81987
5.82453
5.8323
5.84121
5.85006
5.85747
5.86219
5.86402
5.86414
5.86445
5.86642
5.87122
5.87803
5.88535
5.89191
5.89785
5.90387
5.90993
5.91515
5.91906
5.9216
5.92345
5.92594
5.92925
5.93296
5.93576
5.93627
5.93396
5.92947
5.92506
5.92361
5.92697
5.93487
5.94435
5.95115
5.95267
5.94767
5.93697
5.9218
5.9006
5.87251
5.84121
5.81485
5.80032
5.79775
1.40001
1.40001
1.40001
1.40001
1.40001
1.40001
1.40001
1.40001
1.40001
1.40001
1.40001
1.40001
1.40001
1.40001
1.40001
1.40001
1.40001
1.40001
1.40001
1.40001
1.40001
1.40001
1.40001
1.40001
1.40001
1.40001
1.40001
1.40001
1.40001
1.40001
1.40001
1.40001
1.40001
1.40001
1.40001
1.40001
1.40001
1.40001
1.40001
1.40001
1.40001
1.40001
1.40001
1.40001
1.40001
1.40001
1.40001
1.40001
1.40001
1.40001
1.40001
1.40001
1.40001
1.40001
1.40001
1.40001
1.40001
1.40001
1.40001
1.40001
1.40001
1.40001
1.40001
1.40001
1.40001
1.40001
1.40001
1.40001
1.40001
1.40001
1.40001
1.40001
1.40001
1.40001
1.40001
1.40001
1.40001
1.40001
1.40001
1.40001
1.40001
1.40001
1.40001
1.40001
1.40001
1.40001
1.40001
1.40001
1.40001
1.40001
1.40001
1.40001
1.40001
1.40001
1.40001
1.40001
1.40001
1.40001
1.40001
1.40001
1.40001
2.00611
4.8681
5.41878
5.42524
5.44087
5.45553
5.4716
5.48684
5.49967
5.50893
5.51596
5.52386
5.53434
5.5473
5.56114
5.57464
5.58629
5.59436
5.59892
5.60252
5.60768
5.61438
5.62509
5.63906
5.65437
5.66877
5.68195
5.69337
5.70081
5.70364
5.70196
5.69877
5.69659
5.6988
5.70555
5.71627
5.72889
5.74148
5.75251
5.76148
5.76927
5.77807
5.7883
5.79791
5.80613
5.81262
5.81699
5.8221
5.82989
5.83845
5.84703
5.85447
5.85949
5.86165
5.86182
5.86189
5.86357
5.86833
5.87545
5.8832
5.89004
5.89592
5.9014
5.90658
5.91096
5.91449
5.91736
5.91996
5.92319
5.92689
5.93064
5.93322
5.93369
5.93193
5.92806
5.92382
5.92188
5.92397
5.93038
5.93909
5.94605
5.94838
5.94438
5.93472
5.92058
5.90018
5.87226
5.84013
5.81204
5.7953
5.79082
1.40001
1.40001
1.40001
1.40001
1.40001
1.40001
1.40001
1.40001
1.40001
1.40001
1.40001
1.40001
1.40001
1.40001
1.40001
1.40001
1.40001
1.40001
1.40001
1.40001
1.40001
1.40001
1.40001
1.40001
1.40001
1.40001
1.40001
1.40001
1.40001
1.40001
1.40001
1.40001
1.40001
1.40001
1.40001
1.40001
1.40001
1.40001
1.40001
1.40001
1.40001
1.40001
1.40001
1.40001
1.40001
1.40001
1.40001
1.40001
1.40001
1.40001
1.40001
1.40001
1.40001
1.40001
1.40001
1.40001
1.40001
1.40001
1.40001
1.40001
1.40001
1.40001
1.40001
1.40001
1.40001
1.40001
1.40001
1.40001
1.40001
1.40001
1.40001
1.40001
1.40001
1.40001
1.40001
1.40001
1.40001
1.40001
1.40001
1.40001
1.40001
1.40001
1.40001
1.40001
1.40001
1.40001
1.40001
1.40001
1.40001
1.40001
1.40001
1.40001
1.40001
1.40001
1.40001
1.40001
1.40001
1.40001
1.40001
1.40001
1.40001
1.9035
4.78159
5.41959
5.42691
5.44235
5.4572
5.47268
5.48618
5.49689
5.50537
5.51317
5.52265
5.53503
5.54939
5.56395
5.57745
5.58779
5.59391
5.59655
5.59868
5.60306
5.61022
5.622
5.63705
5.65296
5.66706
5.6793
5.68982
5.69733
5.70052
5.6995
5.69727
5.69556
5.69684
5.70199
5.71125
5.72338
5.73679
5.74955
5.76021
5.76875
5.77721
5.78591
5.79388
5.8016
5.80849
5.81414
5.82051
5.82854
5.83657
5.84432
5.85102
5.85571
5.85802
5.85853
5.85901
5.86111
5.86616
5.87342
5.88114
5.88781
5.89347
5.89857
5.90321
5.90707
5.91026
5.91318
5.91617
5.91985
5.92384
5.92769
5.9301
5.93049
5.92928
5.92622
5.92255
5.92053
5.9216
5.92636
5.93375
5.94026
5.94304
5.94024
5.9321
5.91933
5.89987
5.87209
5.83894
5.80892
5.78988
5.78335
1.40001
1.40001
1.40001
1.40001
1.40001
1.40001
1.40001
1.40001
1.40001
1.40001
1.40001
1.40001
1.40001
1.40001
1.40001
1.40001
1.40001
1.40001
1.40001
1.40001
1.40001
1.40001
1.40001
1.40001
1.40001
1.40001
1.40001
1.40001
1.40001
1.40001
1.40001
1.40001
1.40001
1.40001
1.40001
1.40001
1.40001
1.40001
1.40001
1.40001
1.40001
1.40001
1.40001
1.40001
1.40001
1.40001
1.40001
1.40001
1.40001
1.40001
1.40001
1.40001
1.40001
1.40001
1.40001
1.40001
1.40001
1.40001
1.40001
1.40001
1.40001
1.40001
1.40001
1.40001
1.40001
1.40001
1.40001
1.40001
1.40001
1.40001
1.40001
1.40001
1.40001
1.40001
1.40001
1.40001
1.40001
1.40001
1.40001
1.40001
1.40001
1.40001
1.40001
1.40001
1.40001
1.40001
1.40001
1.40001
1.40001
1.40001
1.40001
1.40001
1.40001
1.40001
1.40001
1.40001
1.40001
1.40001
1.40001
1.40001
1.40001
1.80147
4.67926
5.42195
5.43265
5.44736
5.46049
5.47304
5.48378
5.49283
5.50141
5.51038
5.52105
5.5348
5.55017
5.56525
5.57849
5.58806
5.59333
5.59473
5.59506
5.59843
5.60603
5.61874
5.63496
5.65163
5.66559
5.67685
5.68624
5.69342
5.69658
5.69638
5.69546
5.69465
5.6954
5.69924
5.70704
5.71853
5.73246
5.74661
5.75874
5.76795
5.77576
5.78272
5.78937
5.79688
5.80446
5.8117
5.81947
5.82766
5.83503
5.84157
5.8471
5.85108
5.85342
5.8545
5.85583
5.85884
5.86442
5.87174
5.87913
5.88527
5.89052
5.8953
5.89975
5.90346
5.90653
5.90943
5.9125
5.91626
5.92026
5.92402
5.92625
5.92662
5.92592
5.92375
5.921
5.91928
5.91964
5.92287
5.92863
5.93426
5.93719
5.93559
5.9292
5.91786
5.89927
5.87148
5.83724
5.80541
5.78444
5.77618
1.40001
1.40001
1.40001
1.40001
1.40001
1.40001
1.40001
1.40001
1.40001
1.40001
1.40001
1.40001
1.40001
1.40001
1.40001
1.40001
1.40001
1.40001
1.40001
1.40001
1.40001
1.40001
1.40001
1.40001
1.40001
1.40001
1.40001
1.40001
1.40001
1.40001
1.40001
1.40001
1.40001
1.40001
1.40001
1.40001
1.40001
1.40001
1.40001
1.40001
1.40001
1.40001
1.40001
1.40001
1.40001
1.40001
1.40001
1.40001
1.40001
1.40001
1.40001
1.40001
1.40001
1.40001
1.40001
1.40001
1.40001
1.40001
1.40001
1.40001
1.40001
1.40001
1.40001
1.40001
1.40001
1.40001
1.40001
1.40001
1.40001
1.40001
1.40001
1.40001
1.40001
1.40001
1.40001
1.40001
1.40001
1.40001
1.40001
1.40001
1.40001
1.40001
1.40001
1.40001
1.40001
1.40001
1.40001
1.40001
1.40001
1.40001
1.40001
1.40001
1.40001
1.40001
1.40001
1.40001
1.40001
1.40001
1.40001
1.40001
1.40001
1.70359
4.56305
5.42513
5.4387
5.45244
5.4627
5.47217
5.48026
5.4885
5.49766
5.5078
5.51953
5.5335
5.54865
5.56384
5.57739
5.58728
5.59232
5.593
5.59203
5.59436
5.60196
5.61512
5.63225
5.64971
5.66382
5.67434
5.68256
5.68888
5.69191
5.69283
5.69336
5.6938
5.69457
5.69766
5.70417
5.71474
5.72857
5.74335
5.75641
5.76617
5.7734
5.77931
5.78559
5.79322
5.80131
5.80958
5.81822
5.82634
5.833
5.83835
5.84275
5.84603
5.84837
5.85002
5.8523
5.85632
5.86255
5.87001
5.87702
5.88249
5.88717
5.89167
5.89618
5.90007
5.9033
5.90622
5.90912
5.91255
5.91617
5.91954
5.92151
5.92199
5.92184
5.92061
5.91896
5.91781
5.91777
5.9198
5.92396
5.92854
5.93133
5.93069
5.92593
5.91585
5.89785
5.86982
5.8346
5.80141
5.77924
5.76991
1.40001
1.40001
1.40001
1.40001
1.40001
1.40001
1.40001
1.40001
1.40001
1.40001
1.40001
1.40001
1.40001
1.40001
1.40001
1.40001
1.40001
1.40001
1.40001
1.40001
1.40001
1.40001
1.40001
1.40001
1.40001
1.40001
1.40001
1.40001
1.40001
1.40001
1.40001
1.40001
1.40001
1.40001
1.40001
1.40001