/*--------------------------------*- C++ -*----------------------------------*\
  =========                 |
  \\      /  F ield         | OpenFOAM: The Open Source CFD Toolbox
   \\    /   O peration     | Website:  https://openfoam.org
    \\  /    A nd           | Version:  7
     \\/     M anipulation  |
\*---------------------------------------------------------------------------*/
FoamFile
{
    version     2.0;
    format      ascii;
    class       volScalarField;
    location    "1.8";
    object      T;
}
// * * * * * * * * * * * * * * * * * * * * * * * * * * * * * * * * * * * * * //

dimensions      [0 0 0 1 0 0 0];

internalField   nonuniform List<scalar> 
258048
(
1
1
1
1
1
1
1
1
1
1
1
1
1
1
1
1
1
1
1
1
1
1
1
1
1
1
1
1
1
1
1
1
1
1
1
1
1
1
1
1
1
1
1
1
1
1
1
1
1
1
1
1
1
1
1
1
1
1
1
1
1
1
1
1
1
1
1
1
1
1
1
1
1
1
1
1
1
1
1
1
1
1
1
1
1
1
1
1
1
1
1
1
1
1
1
1
1
1
1
1
1
1.93574
2.67281
2.70664
2.70692
2.70769
2.70796
2.70933
2.71386
2.71917
2.72419
2.72826
2.7307
2.73219
2.73386
2.73583
2.73806
2.74016
2.74165
2.74247
2.74278
2.7429
2.74309
2.74365
2.74468
2.746
2.74719
2.74829
2.74959
2.75128
2.75395
2.75736
2.76057
2.76365
2.7655
2.76667
2.76766
2.76918
2.7719
2.77596
2.78068
2.78497
2.78786
2.789
2.78891
2.78849
2.78804
2.78748
2.78654
2.78563
2.78553
2.78656
2.78896
2.79234
2.79626
2.79973
2.80185
2.80355
2.80483
2.8063
2.80803
2.80951
2.81038
2.81048
2.81039
2.81042
2.81109
2.81295
2.81556
2.81793
2.81952
2.82024
2.82044
2.82054
2.82091
2.82182
2.82335
2.82533
2.8276
2.83015
2.83272
2.83511
2.83709
2.83884
2.84152
2.84674
2.85627
2.87086
2.88851
2.90448
2.91406
2.91771
1
1
1
1
1
1
1
1
1
1
1
1
1
1
1
1
1
1
1
1
1
1
1
1
1
1
1
1
1
1
1
1
1
1
1
1
1
1
1
1
1
1
1
1
1
1
1
1
1
1
1
1
1
1
1
1
1
1
1
1
1
1
1
1
1
1
1
1
1
1
1
1
1
1
1
1
1
1
1
1
1
1
1
1
1
1
1
1
1
1
1
1
1
1
1
1
1
1
1
1
1
1.93401
2.67167
2.70695
2.7065
2.70732
2.70806
2.70998
2.71425
2.71945
2.72418
2.72793
2.7303
2.73201
2.73392
2.73603
2.73828
2.7403
2.74171
2.7425
2.74287
2.74311
2.7434
2.74399
2.74494
2.74606
2.74704
2.74797
2.74926
2.75111
2.75389
2.75738
2.76062
2.76365
2.76551
2.76674
2.7678
2.76935
2.77204
2.77602
2.78069
2.78502
2.78803
2.78926
2.78919
2.78868
2.78803
2.78727
2.78631
2.78558
2.78572
2.78689
2.78927
2.79242
2.79607
2.79942
2.80163
2.80353
2.80503
2.80659
2.80818
2.80944
2.81012
2.81015
2.8101
2.81028
2.81111
2.81306
2.81562
2.81789
2.81939
2.82007
2.82029
2.82049
2.82101
2.82205
2.82363
2.82549
2.82757
2.82994
2.8324
2.83476
2.8368
2.83867
2.8415
2.84685
2.85647
2.87108
2.88866
2.90447
2.9139
2.91734
1
1
1
1
1
1
1
1
1
1
1
1
1
1
1
1
1
1
1
1
1
1
1
1
1
1
1
1
1
1
1
1
1
1
1
1
1
1
1
1
1
1
1
1
1
1
1
1
1
1
1
1
1
1
1
1
1
1
1
1
1
1
1
1
1
1
1
1
1
1
1
1
1
1
1
1
1
1
1
1
1
1
1
1
1
1
1
1
1
1
1
1
1
1
1
1
1
1
1
1
1
1.93048
2.67158
2.70692
2.70557
2.70617
2.7072
2.70999
2.71455
2.71971
2.72419
2.72757
2.72985
2.73184
2.73393
2.73616
2.7384
2.74032
2.74164
2.74239
2.74284
2.74324
2.74372
2.7444
2.74528
2.74618
2.74683
2.74748
2.7487
2.75081
2.75379
2.75744
2.76075
2.76374
2.76557
2.76683
2.76798
2.76958
2.77223
2.77608
2.78063
2.78497
2.78809
2.78947
2.78947
2.78888
2.78796
2.78691
2.7859
2.7854
2.78584
2.78732
2.78973
2.79258
2.79581
2.79892
2.80126
2.80342
2.80526
2.807
2.80844
2.80939
2.8098
2.80974
2.80969
2.81003
2.81113
2.81318
2.81567
2.81782
2.81919
2.8198
2.82003
2.82033
2.82107
2.82237
2.82406
2.82582
2.82766
2.82973
2.83197
2.83424
2.83637
2.83843
2.84147
2.84702
2.85674
2.87133
2.88878
2.9044
2.91371
2.91691
1
1
1
1
1
1
1
1
1
1
1
1
1
1
1
1
1
1
1
1
1
1
1
1
1
1
1
1
1
1
1
1
1
1
1
1
1
1
1
1
1
1
1
1
1
1
1
1
1
1
1
1
1
1
1
1
1
1
1
1
1
1
1
1
1
1
1
1
1
1
1
1
1
1
1
1
1
1
1
1
1
1
1
1
1
1
1
1
1
1
1
1
1
1
1
1
1
1
1
1
1
1.92287
2.67021
2.70659
2.70484
2.70571
2.70711
2.71016
2.71465
2.71956
2.7238
2.72695
2.72934
2.73171
2.73407
2.73637
2.73849
2.74021
2.74135
2.74207
2.74266
2.74327
2.74397
2.74479
2.74563
2.74626
2.74657
2.74687
2.74798
2.75038
2.75358
2.75746
2.76093
2.76391
2.76575
2.76708
2.76829
2.76988
2.7724
2.77609
2.78057
2.785
2.78831
2.78982
2.7898
2.78903
2.7877
2.78633
2.78542
2.7853
2.78613
2.78797
2.79034
2.79278
2.79543
2.79825
2.80078
2.80329
2.80552
2.80747
2.8087
2.80927
2.80937
2.80924
2.80924
2.80981
2.8112
2.81328
2.81565
2.81764
2.81891
2.81948
2.81974
2.82018
2.82117
2.82274
2.82448
2.82611
2.82772
2.82949
2.83149
2.83366
2.83584
2.8381
2.8414
2.84718
2.85704
2.87163
2.88893
2.90431
2.91341
2.91632
1
1
1
1
1
1
1
1
1
1
1
1
1
1
1
1
1
1
1
1
1
1
1
1
1
1
1
1
1
1
1
1
1
1
1
1
1
1
1
1
1
1
1
1
1
1
1
1
1
1
1
1
1
1
1
1
1
1
1
1
1
1
1
1
1
1
1
1
1
1
1
1
1
1
1
1
1
1
1
1
1
1
1
1
1
1
1
1
1
1
1
1
1
1
1
1
1
1
1
1
1
1.91097
2.66744
2.70625
2.70472
2.70584
2.70749
2.71044
2.71451
2.719
2.72301
2.72615
2.729
2.7318
2.73434
2.73654
2.73843
2.73983
2.74076
2.7415
2.74228
2.74315
2.74407
2.74505
2.74591
2.74634
2.74635
2.74638
2.74732
2.74985
2.75327
2.75739
2.76108
2.76413
2.76604
2.76743
2.76865
2.77015
2.77251
2.77605
2.78051
2.78505
2.78854
2.79017
2.79009
2.78905
2.78727
2.78565
2.78493
2.78524
2.78658
2.78873
2.79099
2.79294
2.795
2.79751
2.80026
2.80313
2.80575
2.80787
2.80888
2.80909
2.80892
2.80873
2.80886
2.80969
2.81127
2.81332
2.81553
2.81737
2.81856
2.81914
2.81946
2.82007
2.82126
2.82296
2.82472
2.82629
2.82776
2.82932
2.8311
2.83315
2.83532
2.83771
2.84125
2.84726
2.85729
2.87188
2.88903
2.90415
2.91307
2.9157
1
1
1
1
1
1
1
1
1
1
1
1
1
1
1
1
1
1
1
1
1
1
1
1
1
1
1
1
1
1
1
1
1
1
1
1
1
1
1
1
1
1
1
1
1
1
1
1
1
1
1
1
1
1
1
1
1
1
1
1
1
1
1
1
1
1
1
1
1
1
1
1
1
1
1
1
1
1
1
1
1
1
1
1
1
1
1
1
1
1
1
1
1
1
1
1
1
1
1
1
1
1.8929
2.66268
2.70635
2.70528
2.70659
2.70822
2.71069
2.71409
2.71808
2.72192
2.72536
2.72886
2.73211
2.73465
2.73659
2.73805
2.73908
2.73986
2.74066
2.7417
2.74288
2.74406
2.7452
2.74608
2.74639
2.74624
2.74613
2.74692
2.74942
2.75299
2.75726
2.76114
2.76431
2.76631
2.76775
2.76895
2.77035
2.77257
2.77599
2.78048
2.78517
2.78878
2.79042
2.7902
2.78879
2.78661
2.78494
2.78452
2.78525
2.78711
2.78946
2.79148
2.79297
2.79452
2.79677
2.79973
2.80294
2.80595
2.80811
2.80893
2.80883
2.80849
2.8083
2.8086
2.80967
2.81136
2.8133
2.8153
2.81699
2.81818
2.81882
2.81927
2.81999
2.82125
2.82295
2.82468
2.82624
2.82772
2.82924
2.83089
2.83284
2.83493
2.83734
2.84103
2.84721
2.85736
2.87198
2.88903
2.90394
2.91273
2.91518
1
1
1
1
1
1
1
1
1
1
1
1
1
1
1
1
1
1
1
1
1
1
1
1
1
1
1
1
1
1
1
1
1
1
1
1
1
1
1
1
1
1
1
1
1
1
1
1
1
1
1
1
1
1
1
1
1
1
1
1
1
1
1
1
1
1
1
1
1
1
1
1
1
1
1
1
1
1
1
1
1
1
1
1
1
1
1
1
1
1
1
1
1
1
1
1
1
1
1
1
1
1.86974
2.65641
2.70678
2.70629
2.70778
2.70923
2.71107
2.71362
2.71695
2.72072
2.72472
2.72882
2.73235
2.73473
2.73626
2.73725
2.73799
2.7387
2.73965
2.741
2.74242
2.74379
2.74507
2.74605
2.74639
2.74623
2.74607
2.74682
2.74926
2.75284
2.75715
2.76112
2.76436
2.76645
2.76794
2.76916
2.77051
2.77262
2.776
2.78056
2.78532
2.7889
2.79042
2.79001
2.78824
2.78583
2.78431
2.78426
2.7854
2.78762
2.78997
2.79168
2.79281
2.79402
2.79611
2.79923
2.80281
2.80605
2.8082
2.80888
2.80855
2.80805
2.80793
2.80843
2.80972
2.81146
2.81326
2.81499
2.81654
2.81779
2.81856
2.81913
2.81989
2.82109
2.82266
2.82433
2.82595
2.82758
2.82923
2.83088
2.83272
2.8347
2.83707
2.84079
2.84703
2.85721
2.87183
2.88883
2.90367
2.91243
2.91485
1
1
1
1
1
1
1
1
1
1
1
1
1
1
1
1
1
1
1
1
1
1
1
1
1
1
1
1
1
1
1
1
1
1
1
1
1
1
1
1
1
1
1
1
1
1
1
1
1
1
1
1
1
1
1
1
1
1
1
1
1
1
1
1
1
1
1
1
1
1
1
1
1
1
1
1
1
1
1
1
1
1
1
1
1
1
1
1
1
1
1
1
1
1
1
1
1
1
1
1
1
1.84146
2.64901
2.70728
2.7073
2.70885
2.70999
2.71123
2.71299
2.71574
2.71954
2.72409
2.72875
2.73243
2.73455
2.73558
2.73614
2.73664
2.73734
2.73854
2.74021
2.74179
2.74322
2.74462
2.74575
2.74624
2.7462
2.74615
2.74693
2.74933
2.75279
2.75708
2.76106
2.76438
2.76651
2.76805
2.76929
2.77063
2.77273
2.77615
2.78072
2.78539
2.78879
2.79008
2.78945
2.78743
2.78509
2.78387
2.78412
2.7856
2.78792
2.79011
2.79157
2.79247
2.7935
2.79556
2.79886
2.80268
2.80607
2.80817
2.80869
2.80821
2.80762
2.80758
2.80827
2.80975
2.81151
2.81316
2.81468
2.8161
2.81742
2.81834
2.81903
2.81976
2.82079
2.8221
2.82364
2.82543
2.82734
2.82923
2.83103
2.83282
2.83464
2.83693
2.84056
2.84673
2.85683
2.87139
2.8884
2.9033
2.91218
2.91472
1
1
1
1
1
1
1
1
1
1
1
1
1
1
1
1
1
1
1
1
1
1
1
1
1
1
1
1
1
1
1
1
1
1
1
1
1
1
1
1
1
1
1
1
1
1
1
1
1
1
1
1
1
1
1
1
1
1
1
1
1
1
1
1
1
1
1
1
1
1
1
1
1
1
1
1
1
1
1
1
1
1
1
1
1
1
1
1
1
1
1
1
1
1
1
1
1
1
1
1
1
1.80766
2.64103
2.70754
2.70792
2.70936
2.71024
2.71104
2.71229
2.71472
2.71861
2.72356
2.72856
2.73221
2.73395
2.73451
2.73474
2.73508
2.7359
2.73739
2.73936
2.74111
2.74262
2.74404
2.74521
2.74586
2.74607
2.74625
2.74718
2.7495
2.75279
2.75695
2.76089
2.76433
2.76651
2.76808
2.76937
2.77079
2.77296
2.77642
2.78086
2.7853
2.78839
2.78939
2.78857
2.78654
2.7845
2.7836
2.78403
2.78565
2.78791
2.78993
2.79123
2.79201
2.79304
2.79517
2.79861
2.80253
2.80597
2.80799
2.80838
2.80782
2.80719
2.80722
2.80806
2.80967
2.81146
2.813
2.8144
2.81573
2.81709
2.81813
2.81892
2.81962
2.82039
2.82136
2.82276
2.82471
2.82695
2.82917
2.83124
2.83308
2.83475
2.83688
2.84035
2.84634
2.85627
2.87073
2.88777
2.90284
2.91195
2.91473
1
1
1
1
1
1
1
1
1
1
1
1
1
1
1
1
1
1
1
1
1
1
1
1
1
1
1
1
1
1
1
1
1
1
1
1
1
1
1
1
1
1
1
1
1
1
1
1
1
1
1
1
1
1
1
1
1
1
1
1
1
1
1
1
1
1
1
1
1
1
1
1
1
1
1
1
1
1
1
1
1
1
1
1
1
1
1
1
1
1
1
1
1
1
1
1
1
1
1
1
1
1.77002
2.63287
2.70758
2.70797
2.70914
2.70984
2.71055
2.71167
2.71403
2.71801
2.7231
2.72811
2.73154
2.73293
2.73316
2.7332
2.73349
2.73444
2.73621
2.73843
2.74044
2.74211
2.74356
2.74468
2.74541
2.74583
2.74623
2.74733
2.7496
2.75272
2.7567
2.76062
2.76415
2.76645
2.76807
2.76946
2.771
2.77328
2.77668
2.78089
2.78498
2.78772
2.78844
2.78758
2.78578
2.78409
2.78337
2.78386
2.78543
2.78756
2.78944
2.79069
2.79155
2.79272
2.79495
2.79841
2.80231
2.80569
2.80766
2.808
2.80742
2.80678
2.80683
2.80775
2.80945
2.81128
2.8128
2.81417
2.81547
2.81681
2.8179
2.81877
2.8194
2.8199
2.8206
2.82183
2.82384
2.82637
2.82898
2.83137
2.83336
2.83498
2.83692
2.84015
2.84589
2.85559
2.86992
2.88701
2.9023
2.9117
2.91478
1
1
1
1
1
1
1
1
1
1
1
1
1
1
1
1
1
1
1
1
1
1
1
1
1
1
1
1
1
1
1
1
1
1
1
1
1
1
1
1
1
1
1
1
1
1
1
1
1
1
1
1
1
1
1
1
1
1
1
1
1
1
1
1
1
1
1
1
1
1
1
1
1
1
1
1
1
1
1
1
1
1
1
1
1
1
1
1
1
1
1
1
1
1
1
1
1
1
1
1
1
1.73218
2.62468
2.70727
2.70736
2.70826
2.70896
2.70981
2.71106
2.7135
2.71751
2.72254
2.72732
2.73049
2.73159
2.73165
2.73164
2.73196
2.73301
2.73498
2.73743
2.7398
2.74177
2.74336
2.74445
2.7452
2.74568
2.74615
2.7473
2.74951
2.75249
2.75631
2.76027
2.76385
2.76633
2.76806
2.76956
2.77123
2.77356
2.77682
2.78071
2.78437
2.78679
2.7874
2.78668
2.78525
2.7838
2.78308
2.78348
2.78484
2.78679
2.78867
2.7901
2.79123
2.7926
2.79487
2.79821
2.80196
2.80524
2.80717
2.80755
2.80701
2.80638
2.8064
2.80728
2.80901
2.81092
2.81254
2.81396
2.81527
2.81656
2.81764
2.81853
2.81912
2.81943
2.81994
2.82098
2.82294
2.82567
2.8286
2.83132
2.83355
2.83523
2.837
2.83997
2.84542
2.85487
2.86906
2.88619
2.90169
2.91136
2.91475
1
1
1
1
1
1
1
1
1
1
1
1
1
1
1
1
1
1
1
1
1
1
1
1
1
1
1
1
1
1
1
1
1
1
1
1
1
1
1
1
1
1
1
1
1
1
1
1
1
1
1
1
1
1
1
1
1
1
1
1
1
1
1
1
1
1
1
1
1
1
1
1
1
1
1
1
1
1
1
1
1
1
1
1
1
1
1
1
1
1
1
1
1
1
1
1
1
1
1
1
1
1.69236
2.61518
2.70562
2.70599
2.70705
2.70789
2.70894
2.7104
2.71293
2.71687
2.72172
2.72623
2.72912
2.73007
2.73007
2.73007
2.73044
2.73162
2.73367
2.73636
2.73918
2.74166
2.74343
2.74456
2.74526
2.7457
2.74612
2.74716
2.74919
2.75207
2.7558
2.75985
2.76349
2.76619
2.76805
2.76962
2.77139
2.77371
2.77674
2.78022
2.7835
2.78573
2.78641
2.78596
2.7849
2.78355
2.78264
2.78283
2.78389
2.7857
2.78777
2.78959
2.79112
2.79269
2.7949
2.79798
2.80146
2.8046
2.80655
2.80702
2.80658
2.80598
2.80592
2.80668
2.80835
2.81036
2.81221
2.81375
2.8151
2.81632
2.81734
2.81821
2.81876
2.819
2.81941
2.82027
2.82206
2.82486
2.82802
2.83102
2.83357
2.8354
2.83703
2.83978
2.84498
2.85421
2.86828
2.88545
2.90109
2.91092
2.91452
1
1
1
1
1
1
1
1
1
1
1
1
1
1
1
1
1
1
1
1
1
1
1
1
1
1
1
1
1
1
1
1
1
1
1
1
1
1
1
1
1
1
1
1
1
1
1
1
1
1
1
1
1
1
1
1
1
1
1
1
1
1
1
1
1
1
1
1
1
1
1
1
1
1
1
1
1
1
1
1
1
1
1
1
1
1
1
1
1
1
1
1
1
1
1
1
1
1
1
1
1
1.64786
2.6025
2.70351
2.70457
2.70612
2.70705
2.70817
2.70963
2.7121
2.71593
2.72059
2.72491
2.72764
2.7285
2.72847
2.72851
2.72895
2.73019
2.73226
2.73526
2.73868
2.74166
2.74369
2.74493
2.74558
2.74587
2.74615
2.74699
2.74875
2.75155
2.75522
2.7594
2.76309
2.76603
2.76799
2.7696
2.77139
2.77361
2.77637
2.77949
2.78251
2.78467
2.78552
2.78535
2.78455
2.78319
2.78201
2.78185
2.78263
2.78445
2.78689
2.78923
2.79118
2.79293
2.79498
2.79771
2.80084
2.80381
2.80579
2.80642
2.80612
2.80557
2.80539
2.80597
2.8075
2.80963
2.81174
2.81347
2.81491
2.81605
2.81697
2.81781
2.81837
2.8186
2.819
2.81971
2.82128
2.82402
2.82726
2.83048
2.83333
2.83538
2.83699
2.83959
2.84458
2.85367
2.86768
2.88484
2.9005
2.91032
2.91397
1
1
1
1
1
1
1
1
1
1
1
1
1
1
1
1
1
1
1
1
1
1
1
1
1
1
1
1
1
1
1
1
1
1
1
1
1
1
1
1
1
1
1
1
1
1
1
1
1
1
1
1
1
1
1
1
1
1
1
1
1
1
1
1
1
1
1
1
1
1
1
1
1
1
1
1
1
1
1
1
1
1
1
1
1
1
1
1
1
1
1
1
1
1
1
1
1
1
1
1
1
1.59464
2.58586
2.70192
2.70332
2.70542
2.70644
2.70755
2.70894
2.71126
2.71487
2.71932
2.7234
2.72595
2.72676
2.72682
2.72696
2.72753
2.72873
2.73092
2.73434
2.73835
2.74178
2.74416
2.74553
2.74607
2.74612
2.74619
2.74676
2.74826
2.75098
2.75461
2.75889
2.76268
2.76581
2.76784
2.76945
2.77117
2.77325
2.7758
2.7787
2.78154
2.78366
2.78463
2.78464
2.78399
2.78255
2.78111
2.78062
2.78128
2.78323
2.78609
2.78895
2.79129
2.79317
2.79505
2.79739
2.80018
2.80296
2.80496
2.80575
2.80561
2.80512
2.80482
2.8052
2.80658
2.80876
2.8111
2.81309
2.81464
2.81572
2.81656
2.81736
2.81794
2.81822
2.81865
2.8193
2.82066
2.82319
2.82638
2.82973
2.83279
2.83508
2.83682
2.83932
2.84423
2.8533
2.8673
2.8844
2.89994
2.90958
2.91312
1
1
1
1
1
1
1
1
1
1
1
1
1
1
1
1
1
1
1
1
1
1
1
1
1
1
1
1
1
1
1
1
1
1
1
1
1
1
1
1
1
1
1
1
1
1
1
1
1
1
1
1
1
1
1
1
1
1
1
1
1
1
1
1
1
1
1
1
1
1
1
1
1
1
1
1
1
1
1
1
1
1
1
1
1
1
1
1
1
1
1
1
1
1
1
1
1
1
1
1
1
1.53557
2.56687
2.70079
2.70247
2.70489
2.70594
2.707
2.70835
2.71056
2.71393
2.71798
2.72166
2.72399
2.72488
2.72514
2.72547
2.7262
2.72748
2.72994
2.73378
2.73827
2.7421
2.74481
2.74622
2.74662
2.74641
2.74621
2.7465
2.74775
2.75036
2.75398
2.75834
2.76227
2.7655
2.76754
2.76905
2.77066
2.77266
2.77514
2.77797
2.78068
2.78269
2.78362
2.78365
2.78299
2.78149
2.77995
2.77937
2.78003
2.78217
2.7854
2.78866
2.7913
2.79329
2.79504
2.79707
2.79956
2.80216
2.80414
2.80505
2.80504
2.80461
2.8042
2.80442
2.80564
2.80783
2.81034
2.81254
2.81422
2.81531
2.81611
2.81686
2.81743
2.81783
2.81832
2.81896
2.82018
2.82241
2.82545
2.8288
2.83197
2.83452
2.83645
2.83896
2.84393
2.85309
2.86714
2.88413
2.89941
2.90872
2.91199
1
1
1
1
1
1
1
1
1
1
1
1
1
1
1
1
1
1
1
1
1
1
1
1
1
1
1
1
1
1
1
1
1
1
1
1
1
1
1
1
1
1
1
1
1
1
1
1
1
1
1
1
1
1
1
1
1
1
1
1
1
1
1
1
1
1
1
1
1
1
1
1
1
1
1
1
1
1
1
1
1
1
1
1
1
1
1
1
1
1
1
1
1
1
1
1
1
1
1
1
1
1.47466
2.54613
2.69971
2.70134
2.70384
2.70506
2.70628
2.70787
2.7102
2.71327
2.71667
2.71976
2.72182
2.72284
2.72338
2.72402
2.72502
2.7267
2.72952
2.73367
2.73852
2.74265
2.74549
2.74681
2.74707
2.74669
2.74622
2.74626
2.74725
2.74975
2.75335
2.75779
2.76188
2.76512
2.76712
2.7685
2.76999
2.77197
2.7745
2.77733
2.77991
2.7817
2.78243
2.78234
2.78156
2.78006
2.77866
2.77822
2.77899
2.78135
2.78481
2.78832
2.79115
2.7932
2.79487
2.79671
2.79899
2.80145
2.80338
2.80432
2.80439
2.80399
2.80352
2.80362
2.80474
2.80692
2.80952
2.81187
2.81365
2.81478
2.81559
2.81628
2.81683
2.81734
2.81794
2.81864
2.81978
2.82176
2.82454
2.82776
2.83094
2.8337
2.83586
2.83851
2.84367
2.85302
2.86714
2.88398
2.89891
2.90777
2.91067
1
1
1
1
1
1
1
1
1
1
1
1
1
1
1
1
1
1
1
1
1
1
1
1
1
1
1
1
1
1
1
1
1
1
1
1
1
1
1
1
1
1
1
1
1
1
1
1
1
1
1
1
1
1
1
1
1
1
1
1
1
1
1
1
1
1
1
1
1
1
1
1
1
1
1
1
1
1
1
1
1
1
1
1
1
1
1
1
1
1
1
1
1
1
1
1
1
1
1
1
1
1.41029
2.52246
2.69846
2.69936
2.70164
2.70339
2.70529
2.7074
2.70994
2.71283
2.71566
2.71811
2.71986
2.72091
2.72174
2.72279
2.72423
2.72642
2.72967
2.73409
2.73917
2.74336
2.74605
2.74724
2.74742
2.74695
2.74621
2.74596
2.7467
2.74903
2.75264
2.75719
2.76145
2.76469
2.76666
2.76791
2.76927
2.77125
2.77386
2.77671
2.77916
2.78065
2.78102
2.78072
2.77978
2.77842
2.77738
2.77725
2.77822
2.78076
2.78433
2.78791
2.79079
2.79287
2.79452
2.7963
2.79848
2.80084
2.8027
2.8036
2.80367
2.80326
2.80276
2.80282
2.80389
2.80607
2.80871
2.81114
2.81298
2.81414
2.81497
2.81559
2.81609
2.81672
2.81747
2.8183
2.81946
2.82123
2.8237
2.8267
2.82979
2.83265
2.83507
2.83797
2.84341
2.85298
2.86716
2.88382
2.89838
2.90678
2.90927
1
1
1
1
1
1
1
1
1
1
1
1
1
1
1
1
1
1
1
1
1
1
1
1
1
1
1
1
1
1
1
1
1
1
1
1
1
1
1
1
1
1
1
1
1
1
1
1
1
1
1
1
1
1
1
1
1
1
1
1
1
1
1
1
1
1
1
1
1
1
1
1
1
1
1
1
1
1
1
1
1
1
1
1
1
1
1
1
1
1
1
1
1
1
1
1
1
1
1
1
1
1.34044
2.49318
2.69629
2.69646
2.69846
2.70098
2.7038
2.7067
2.70975
2.71272
2.71516
2.71692
2.71831
2.71937
2.72044
2.72183
2.72374
2.7265
2.73027
2.73495
2.74002
2.74402
2.74643
2.74753
2.74774
2.74725
2.74627
2.74568
2.7462
2.74829
2.7519
2.75655
2.76098
2.76423
2.76621
2.76735
2.76858
2.77051
2.77312
2.77594
2.77825
2.77944
2.77944
2.77892
2.77792
2.77683
2.77621
2.77639
2.77765
2.78033
2.78391
2.78745
2.79028
2.79236
2.79403
2.79583
2.798
2.80031
2.80207
2.80289
2.80288
2.80241
2.8019
2.80198
2.8031
2.80532
2.80799
2.81044
2.81227
2.8134
2.8142
2.81477
2.81523
2.81595
2.81686
2.81789
2.81915
2.82078
2.82296
2.82568
2.82861
2.83148
2.83413
2.83738
2.84312
2.85289
2.8671
2.88359
2.8978
2.90582
2.90795
1
1
1
1
1
1
1
1
1
1
1
1
1
1
1
1
1
1
1
1
1
1
1
1
1
1
1
1
1
1
1
1
1
1
1
1
1
1
1
1
1
1
1
1
1
1
1
1
1
1
1
1
1
1
1
1
1
1
1
1
1
1
1
1
1
1
1
1
1
1
1
1
1
1
1
1
1
1
1
1
1
1
1
1
1
1
1
1
1
1
1
1
1
1
1
1
1
1
1
1
1
1.26795
2.45855
2.69278
2.693
2.69539
2.69858
2.70228
2.70607
2.70969
2.71282
2.71511
2.71652
2.71745
2.7183
2.71944
2.72111
2.72349
2.7268
2.73107
2.73585
2.74072
2.74438
2.74652
2.74764
2.74796
2.74749
2.74634
2.74545
2.74571
2.74749
2.75113
2.75586
2.76043
2.76376
2.7658
2.76687
2.76797
2.76973
2.77222
2.77489
2.777
2.77797
2.7778
2.77714
2.77621
2.77541
2.77514
2.77557
2.77709
2.77989
2.78346
2.78694
2.78971
2.79176
2.79345
2.79528
2.79747
2.79975
2.80144
2.80215
2.80203
2.80147
2.80096
2.80111
2.80235
2.80467
2.80738
2.80979
2.81153
2.81257
2.81326
2.81377
2.81423
2.81503
2.81611
2.81738
2.81879
2.82034
2.82229
2.82475
2.82748
2.83028
2.8331
2.83673
2.84276
2.85266
2.86685
2.88318
2.89716
2.90493
2.90683
1
1
1
1
1
1
1
1
1
1
1
1
1
1
1
1
1
1
1
1
1
1
1
1
1
1
1
1
1
1
1
1
1
1
1
1
1
1
1
1
1
1
1
1
1
1
1
1
1
1
1
1
1
1
1
1
1
1
1
1
1
1
1
1
1
1
1
1
1
1
1
1
1
1
1
1
1
1
1
1
1
1
1
1
1
1
1
1
1
1
1
1
1
1
1
1
1
1
1
1
1
1.19391
2.41628
2.68904
2.69078
2.69342
2.69707
2.70135
2.70575
2.70984
2.71323
2.71547
2.71671
2.71744
2.71805
2.719
2.72066
2.72331
2.72705
2.73169
2.73644
2.74102
2.7444
2.74639
2.7476
2.74811
2.74773
2.74654
2.74543
2.7454
2.74684
2.75037
2.75511
2.75975
2.76317
2.76535
2.76641
2.76735
2.76888
2.77109
2.77349
2.7754
2.77625
2.7761
2.77553
2.77479
2.77423
2.77416
2.77473
2.77642
2.77934
2.78294
2.78641
2.78916
2.7912
2.79287
2.79469
2.79685
2.79909
2.80072
2.80135
2.80112
2.80045
2.79995
2.8002
2.8016
2.80407
2.80685
2.8092
2.81079
2.81166
2.81218
2.81262
2.81314
2.81402
2.81527
2.81677
2.81832
2.81986
2.82169
2.82395
2.82647
2.82913
2.83208
2.83601
2.84224
2.85219
2.86633
2.88257
2.89644
2.90413
2.90597
1
1
1
1
1
1
1
1
1
1
1
1
1
1
1
1
1
1
1
1
1
1
1
1
1
1
1
1
1
1
1
1
1
1
1
1
1
1
1
1
1
1
1
1
1
1
1
1
1
1
1
1
1
1
1
1
1
1
1
1
1
1
1
1
1
1
1
1
1
1
1
1
1
1
1
1
1
1
1
1
1
1
1
1
1
1
1
1
1
1
1
1
1
1
1
1
1
1
1
1
1
1.11536
2.36856
2.68696
2.69018
2.69303
2.69687
2.70136
2.70602
2.71047
2.71401
2.71619
2.71717
2.71757
2.71795
2.71877
2.72043
2.72321
2.72714
2.73194
2.7367
2.74107
2.74427
2.74615
2.74745
2.74812
2.74786
2.74676
2.7455
2.74521
2.74634
2.74965
2.75428
2.75888
2.76241
2.76477
2.76588
2.76672
2.76797
2.76979
2.77183
2.77352
2.77438
2.77447
2.77413
2.77365
2.77328
2.77329
2.77392
2.7757
2.77871
2.78236
2.78588
2.78866
2.7907
2.79232
2.79405
2.79611
2.79827
2.79985
2.80043
2.80013
2.79938
2.79888
2.79923
2.80082
2.80348
2.80635
2.80861
2.81
2.81065
2.811
2.8114
2.81201
2.81298
2.81437
2.81604
2.81768
2.81927
2.8211
2.82327
2.8256
2.82812
2.83112
2.83519
2.84149
2.85143
2.86551
2.88174
2.89565
2.90346
2.90538
1
1
1
1
1
1
1
1
1
1
1
1
1
1
1
1
1
1
1
1
1
1
1
1
1
1
1
1
1
1
1
1
1
1
1
1
1
1
1
1
1
1
1
1
1
1
1
1
1
1
1
1
1
1
1
1
1
1
1
1
1
1
1
1
1
1
1
1
1
1
1
1
1
1
1
1
1
1
1
1
1
1
1
1
1
1
1
1
1
1
1
1
1
1
1
1
1
1
1
1
1
1.0256
2.3162
2.68783
2.69035
2.6932
2.69718
2.70174
2.70657
2.71119
2.7148
2.71697
2.71785
2.71807
2.71834
2.71908
2.7207
2.72343
2.72726
2.73191
2.73648
2.74067
2.7438
2.7457
2.74713
2.74798
2.74787
2.74694
2.74565
2.74516
2.74604
2.749
2.75333
2.75775
2.76135
2.76391
2.76517
2.76598
2.76698
2.76841
2.77004
2.77152
2.77249
2.77293
2.77292
2.77275
2.77254
2.77257
2.7732
2.775
2.77804
2.78175
2.78534
2.78821
2.79026
2.79181
2.79339
2.79526
2.7973
2.79884
2.79942
2.79907
2.79827
2.79777
2.79821
2.79998
2.80285
2.80581
2.80797
2.80914
2.80961
2.80982
2.81022
2.81092
2.81197
2.81343
2.81515
2.81682
2.81849
2.82047
2.82266
2.82487
2.82728
2.83021
2.83424
2.84049
2.85037
2.86443
2.88074
2.89484
2.90288
2.90498
1
1
1
1
1
1
1
1
1
1
1
1
1
1
1
1
1
1
1
1
1
1
1
1
1
1
1
1
1
1
1
1
1
1
1
1
1
1
1
1
1
1
1
1
1
1
1
1
1
1
1
1
1
1
1
1
1
1
1
1
1
1
1
1
1
1
1
1
1
1
1
1
1
1
1
1
1
1
1
1
1
1
1
1
1
1
1
1
1
1
1
1
1
1
1
1
1
1
1
1
1
1.00045
2.25698
2.6854
2.68972
2.6932
2.69756
2.7023
2.70721
2.71194
2.71571
2.71802
2.71894
2.71907
2.71927
2.71987
2.7213
2.72371
2.7271
2.73129
2.73553
2.73953
2.74282
2.74502
2.74671
2.74775
2.74777
2.747
2.74576
2.74515
2.74581
2.74834
2.75221
2.75632
2.75992
2.76268
2.76417
2.76504
2.76591
2.76702
2.76832
2.76959
2.77063
2.77138
2.77179
2.77186
2.77186
2.77196
2.7726
2.77441
2.77745
2.78118
2.78483
2.78778
2.78984
2.79129
2.79267
2.79432
2.79619
2.79769
2.79829
2.79795
2.79714
2.79664
2.79714
2.79907
2.80211
2.80514
2.80722
2.8082
2.80851
2.80867
2.8091
2.80991
2.811
2.81244
2.81412
2.81577
2.81754
2.81975
2.82208
2.82426
2.82657
2.82934
2.83317
2.83926
2.84906
2.86315
2.87962
2.89401
2.90235
2.90468
1
1
1
1
1
1
1
1
1
1
1
1
1
1
1
1
1
1
1
1
1
1
1
1
1
1
1
1
1
1
1
1
1
1
1
1
1
1
1
1
1
1
1
1
1
1
1
1
1
1
1
1
1
1
1
1
1
1
1
1
1
1
1
1
1
1
1
1
1
1
1
1
1
1
1
1
1
1
1
1
1
1
1
1
1
1
1
1
1
1
1
1
1
1
1
1
1
1
1
1
1
1
2.18724
2.68597
2.6894
2.69278
2.69729
2.70211
2.70712
2.71201
2.71606
2.71875
2.72003
2.7203
2.7205
2.72095
2.72207
2.72397
2.7267
2.73016
2.73398
2.73779
2.7413
2.74398
2.74601
2.74726
2.74744
2.74684
2.74572
2.74507
2.74554
2.74757
2.7509
2.75463
2.75815
2.76105
2.76284
2.76391
2.76475
2.76568
2.76674
2.76785
2.7689
2.76981
2.77052
2.77088
2.77112
2.7714
2.77214
2.77398
2.77703
2.78074
2.78437
2.78732
2.78936
2.79071
2.79187
2.7933
2.795
2.79645
2.79707
2.79676
2.79599
2.7955
2.79605
2.79806
2.8012
2.80426
2.80629
2.80717
2.80741
2.80759
2.80811
2.80898
2.81006
2.81141
2.81296
2.81458
2.81646
2.81893
2.82146
2.82367
2.82588
2.82843
2.83199
2.83786
2.84757
2.86174
2.87843
2.89315
2.90179
2.90439
1
1
1
1
1
1
1
1
1
1
1
1
1
1
1
1
1
1
1
1
1
1
1
1
1
1
1
1
1
1
1
1
1
1
1
1
1
1
1
1
1
1
1
1
1
1
1
1
1
1
1
1
1
1
1
1
1
1
1
1
1
1
1
1
1
1
1
1
1
1
1
1
1
1
1
1
1
1
1
1
1
1
1
1
1
1
1
1
1
1
1
1
1
1
1
1
1
1
1
1
1
1
2.10968
2.68461
2.6884
2.69139
2.69584
2.70078
2.70609
2.71131
2.71574
2.71888
2.72065
2.72126
2.72154
2.72182
2.72258
2.72399
2.72607
2.72878
2.73208
2.73564
2.73925
2.7424
2.74486
2.74644
2.74686
2.74641
2.74548
2.74482
2.74512
2.74667
2.74947
2.75278
2.75613
2.75911
2.76117
2.76249
2.76345
2.76434
2.76529
2.76632
2.76738
2.76836
2.76924
2.76981
2.77028
2.77081
2.77174
2.77367
2.77675
2.78041
2.78395
2.78683
2.7888
2.79004
2.79102
2.79224
2.79378
2.79515
2.79577
2.79551
2.7948
2.79434
2.79491
2.79696
2.8001
2.80314
2.80519
2.80607
2.80635
2.8066
2.80723
2.80811
2.80912
2.81032
2.81172
2.8133
2.81535
2.81805
2.82074
2.82298
2.82509
2.82744
2.83072
2.83639
2.84603
2.86029
2.87721
2.89223
2.90115
2.90399
1
1
1
1
1
1
1
1
1
1
1
1
1
1
1
1
1
1
1
1
1
1
1
1
1
1
1
1
1
1
1
1
1
1
1
1
1
1
1
1
1
1
1
1
1
1
1
1
1
1
1
1
1
1
1
1
1
1
1
1
1
1
1
1
1
1
1
1
1
1
1
1
1
1
1
1
1
1
1
1
1
1
1
1
1
1
1
1
1
1
1
1
1
1
1
1
1
1
1
1
1
1
2.0249
2.67886
2.68775
2.68966
2.6934
2.69809
2.70367
2.70942
2.71454
2.71839
2.72074
2.72169
2.72205
2.72222
2.72274
2.72378
2.72529
2.72731
2.72995
2.73311
2.73669
2.74016
2.74313
2.74522
2.74601
2.74573
2.74497
2.74431
2.74441
2.74553
2.74786
2.75079
2.75394
2.75697
2.75923
2.76082
2.76198
2.76298
2.76396
2.76503
2.76612
2.76714
2.76803
2.7687
2.76934
2.77014
2.77132
2.77339
2.77654
2.78015
2.78356
2.78629
2.78815
2.78927
2.79012
2.79117
2.79256
2.79383
2.79443
2.7942
2.79356
2.79316
2.79375
2.79578
2.79885
2.80185
2.80394
2.80491
2.80532
2.80571
2.80638
2.8072
2.8081
2.80915
2.81043
2.81204
2.81428
2.81714
2.81987
2.8221
2.82412
2.82631
2.82941
2.83492
2.84451
2.85884
2.87595
2.89125
2.90036
2.90343
1
1
1
1
1
1
1
1
1
1
1
1
1
1
1
1
1
1
1
1
1
1
1
1
1
1
1
1
1
1
1
1
1
1
1
1
1
1
1
1
1
1
1
1
1
1
1
1
1
1
1
1
1
1
1
1
1
1
1
1
1
1
1
1
1
1
1
1
1
1
1
1
1
1
1
1
1
1
1
1
1
1
1
1
1
1
1
1
1
1
1
1
1
1
1
1
1
1
1
1
1
1
1.92975
2.66543
2.68846
2.68871
2.69121
2.69517
2.70057
2.70656
2.71224
2.71685
2.71986
2.72135
2.72199
2.72216
2.72255
2.72326
2.72432
2.72578
2.7278
2.73043
2.73377
2.73742
2.74086
2.74356
2.74488
2.7448
2.74416
2.74343
2.74334
2.74414
2.74613
2.74878
2.75173
2.75475
2.75713
2.75888
2.76028
2.76151
2.76271
2.76396
2.76515
2.7662
2.76706
2.76772
2.76842
2.76939
2.77082
2.77306
2.77626
2.77982
2.78309
2.78566
2.7874
2.78843
2.78918
2.79012
2.79136
2.79251
2.79305
2.79285
2.7923
2.79197
2.79256
2.79454
2.79748
2.80042
2.80258
2.8037
2.8043
2.80481
2.80548
2.80619
2.80696
2.80792
2.80916
2.81088
2.81332
2.81619
2.8188
2.82094
2.8229
2.82502
2.82807
2.83351
2.84305
2.85742
2.87467
2.89016
2.89939
2.90266
1
1
1
1
1
1
1
1
1
1
1
1
1
1
1
1
1
1
1
1
1
1
1
1
1
1
1
1
1
1
1
1
1
1
1
1
1
1
1
1
1
1
1
1
1
1
1
1
1
1
1
1
1
1
1
1
1
1
1
1
1
1
1
1
1
1
1
1
1
1
1
1
1
1
1
1
1
1
1
1
1
1
1
1
1
1
1
1
1
1
1
1
1
1
1
1
1
1
1
1
1
1
1.82127
2.64285
2.68976
2.68883
2.69024
2.6929
2.69734
2.70297
2.70889
2.71405
2.71784
2.72011
2.72126
2.72161
2.72192
2.7224
2.72318
2.72422
2.7257
2.72781
2.73075
2.73439
2.73819
2.74147
2.74338
2.74367
2.74312
2.7423
2.74202
2.74261
2.74437
2.74687
2.74964
2.75254
2.75494
2.7568
2.7584
2.75992
2.76147
2.76302
2.76441
2.76553
2.76635
2.76693
2.7676
2.76863
2.77021
2.77259
2.77583
2.77933
2.78248
2.78492
2.78656
2.78752
2.78823
2.78907
2.79017
2.79117
2.79164
2.79147
2.79101
2.79077
2.79137
2.79328
2.79607
2.79894
2.80119
2.80249
2.80327
2.80385
2.80444
2.80501
2.80568
2.80663
2.80796
2.80987
2.81247
2.81519
2.81751
2.81949
2.82142
2.82359
2.82671
2.83217
2.84167
2.85602
2.87333
2.88895
2.89826
2.90169
1
1
1
1
1
1
1
1
1
1
1
1
1
1
1
1
1
1
1
1
1
1
1
1
1
1
1
1
1
1
1
1
1
1
1
1
1
1
1
1
1
1
1
1
1
1
1
1
1
1
1
1
1
1
1
1
1
1
1
1
1
1
1
1
1
1
1
1
1
1
1
1
1
1
1
1
1
1
1
1
1
1
1
1
1
1
1
1
1
1
1
1
1
1
1
1
1
1
1
1
1
1
1.70235
2.61228
2.69036
2.68908
2.69023
2.69197
2.69516
2.69956
2.70483
2.71007
2.71452
2.7176
2.71933
2.72014
2.7206
2.72108
2.72179
2.7226
2.72368
2.72536
2.72791
2.7314
2.73541
2.73914
2.74162
2.74234
2.74189
2.74104
2.74062
2.74108
2.74267
2.74505
2.74769
2.75041
2.75277
2.75471
2.75646
2.75823
2.76014
2.76205
2.76372
2.765
2.76582
2.76634
2.76692
2.76792
2.76955
2.77197
2.77518
2.77861
2.78166
2.78401
2.78559
2.78655
2.78725
2.78802
2.78897
2.7898
2.79021
2.79008
2.78973
2.78956
2.79016
2.792
2.79465
2.79747
2.79982
2.8013
2.80221
2.80277
2.8032
2.80363
2.80426
2.80531
2.80686
2.80902
2.81168
2.81411
2.81601
2.81779
2.81972
2.82203
2.82532
2.83085
2.84031
2.85459
2.87191
2.8876
2.89698
2.90056
1
1
1
1
1
1
1
1
1
1
1
1
1
1
1
1
1
1
1
1
1
1
1
1
1
1
1
1
1
1
1
1
1
1
1
1
1
1
1
1
1
1
1
1
1
1
1
1
1
1
1
1
1
1
1
1
1
1
1
1
1
1
1
1
1
1
1
1
1
1
1
1
1
1
1
1
1
1
1
1
1
1
1
1
1
1
1
1
1
1
1
1
1
1
1
1
1
1
1
1
1
1
1.57595
2.57422
2.69006
2.68904
2.69023
2.69147
2.69373
2.69705
2.70121
2.70582
2.71032
2.71397
2.71635
2.71773
2.71856
2.71931
2.7202
2.72106
2.72194
2.72326
2.72547
2.72873
2.73276
2.73676
2.73966
2.74078
2.74051
2.73979
2.73936
2.73974
2.7412
2.74341
2.74588
2.74841
2.75069
2.75268
2.75459
2.75663
2.75888
2.7611
2.76304
2.76448
2.76533
2.76582
2.76631
2.76722
2.7688
2.77117
2.77431
2.77765
2.78062
2.78292
2.78449
2.78548
2.78621
2.78693
2.78774
2.78841
2.78874
2.78869
2.78846
2.78836
2.78895
2.7907
2.79325
2.79607
2.79852
2.80011
2.80106
2.80152
2.80174
2.80203
2.80272
2.80397
2.80585
2.80825
2.81086
2.81292
2.81438
2.81596
2.81788
2.82037
2.82388
2.82949
2.83891
2.8531
2.87038
2.88611
2.89559
2.89928
1
1
1
1
1
1
1
1
1
1
1
1
1
1
1
1
1
1
1
1
1
1
1
1
1
1
1
1
1
1
1
1
1
1
1
1
1
1
1
1
1
1
1
1
1
1
1
1
1
1
1
1
1
1
1
1
1
1
1
1
1
1
1
1
1
1
1
1
1
1
1
1
1
1
1
1
1
1
1
1
1
1
1
1
1
1
1
1
1
1
1
1
1
1
1
1
1
1
1
1
1
1
1.4445
2.52792
2.6886
2.68801
2.68972
2.69086
2.69264
2.69518
2.69848
2.70239
2.7066
2.71027
2.71293
2.71469
2.71595
2.71714
2.71844
2.71963
2.7207
2.72201
2.72392
2.72675
2.73047
2.73443
2.73755
2.73903
2.73903
2.7386
2.73833
2.73875
2.74013
2.74214
2.74436
2.74663
2.74877
2.75081
2.75291
2.75524
2.75779
2.76027
2.76238
2.76393
2.76483
2.76531
2.76574
2.76653
2.76802
2.77028
2.77331
2.77654
2.7794
2.78166
2.78324
2.78429
2.78507
2.78576
2.78645
2.78697
2.78724
2.78725
2.78716
2.78713
2.78771
2.78939
2.79189
2.79475
2.79729
2.79893
2.79979
2.80006
2.80008
2.80028
2.80106
2.80262
2.8049
2.80752
2.80994
2.81158
2.81268
2.81406
2.81595
2.81862
2.82233
2.82803
2.83742
2.85152
2.86874
2.88454
2.89411
2.89786
1
1
1
1
1
1
1
1
1
1
1
1
1
1
1
1
1
1
1
1
1
1
1
1
1
1
1
1
1
1
1
1
1
1
1
1
1
1
1
1
1
1
1
1
1
1
1
1
1
1
1
1
1
1
1
1
1
1
1
1
1
1
1
1
1
1
1
1
1
1
1
1
1
1
1
1
1
1
1
1
1
1
1
1
1
1
1
1
1
1
1
1
1
1
1
1
1
1
1
1
1
1
1.3121
2.47171
2.68652
2.6857
2.68817
2.68979
2.69192
2.69427
2.69714
2.7006
2.70418
2.70733
2.7098
2.71165
2.71322
2.7149
2.71673
2.71849
2.72008
2.72166
2.7235
2.72592
2.72904
2.73252
2.73547
2.73714
2.73755
2.73746
2.73753
2.73816
2.73954
2.74134
2.74325
2.74518
2.7471
2.74913
2.75142
2.75403
2.75686
2.75954
2.76178
2.76336
2.76425
2.76471
2.76508
2.76577
2.76713
2.76929
2.77221
2.77535
2.77811
2.78028
2.78184
2.78294
2.78377
2.78445
2.78507
2.78547
2.78568
2.78576
2.78578
2.78584
2.78645
2.78809
2.79061
2.79353
2.79609
2.79768
2.79837
2.79839
2.79823
2.79842
2.79935
2.80128
2.80392
2.80668
2.80886
2.8101
2.81098
2.81217