/*--------------------------------*- C++ -*----------------------------------*\
  =========                 |
  \\      /  F ield         | OpenFOAM: The Open Source CFD Toolbox
   \\    /   O peration     | Website:  https://openfoam.org
    \\  /    A nd           | Version:  7
     \\/     M anipulation  |
\*---------------------------------------------------------------------------*/
FoamFile
{
    version     2.0;
    format      ascii;
    class       volVectorField;
    location    "0.3";
    object      U;
}
// * * * * * * * * * * * * * * * * * * * * * * * * * * * * * * * * * * * * * //

dimensions      [0 1 -1 0 0 0 0];

internalField   nonuniform List<vector> 
4032
(
(3 -1.39659e-16 0)
(3 -3.35784e-16 0)
(3 -4.64217e-16 0)
(3 -1.58576e-16 0)
(3 -2.677e-16 0)
(3 -4.28345e-16 0)
(3 -2.75332e-16 0)
(3 1.44652e-16 0)
(3 1.13872e-16 0)
(3 1.55425e-16 0)
(3 -2.08858e-18 0)
(3 -1.14583e-16 0)
(3 6.28375e-17 0)
(3 -1.61099e-16 0)
(3 -3.16328e-17 0)
(3 -5.26567e-16 0)
(1.13602 0.0221991 0)
(0.554009 0.0218819 0)
(0.510145 0.0545015 0)
(0.404903 0.0533279 0)
(0.30791 0.0449888 0)
(0.204066 0.0395704 0)
(0.11545 0.0346391 0)
(0.030451 0.036181 0)
(3 -9.58903e-18 0)
(3 -5.18303e-16 0)
(3 -3.06713e-16 0)
(3 -4.08902e-16 0)
(3 -5.90594e-16 0)
(3 -8.93785e-16 0)
(3 -5.1625e-16 0)
(3 2.2536e-16 0)
(3 4.63644e-16 0)
(3 4.1431e-16 0)
(3 1.08786e-16 0)
(3 -2.73351e-16 0)
(3 -4.49771e-16 0)
(3 -9.19322e-16 0)
(3 -1.05044e-15 0)
(3 -1.21955e-15 0)
(1.17208 0.104769 0)
(0.542119 0.101238 0)
(0.47636 0.15683 0)
(0.372961 0.15101 0)
(0.281045 0.129938 0)
(0.184459 0.115007 0)
(0.103493 0.102525 0)
(0.027306 0.106475 0)
(3 -6.80714e-17 0)
(3 6.53915e-17 0)
(3 4.75279e-16 0)
(3 5.74254e-16 0)
(3 1.38424e-16 0)
(3 -1.55402e-16 0)
(3 -1.48854e-16 0)
(3 2.83085e-16 0)
(3 9.76316e-16 0)
(3 1.06549e-15 0)
(3 1.10513e-15 0)
(3 9.43856e-16 0)
(3 -2.69165e-16 0)
(3 -5.01682e-16 0)
(3 -7.31529e-16 0)
(3 -1.86352e-15 0)
(1.29296 0.186728 0)
(0.563714 0.190478 0)
(0.474316 0.261501 0)
(0.376674 0.249687 0)
(0.287234 0.216113 0)
(0.192527 0.190142 0)
(0.107336 0.170834 0)
(0.0302247 0.179381 0)
(3 -8.98438e-17 0)
(3 1.33721e-16 0)
(3 2.13573e-16 0)
(3 1.4463e-16 0)
(3 1.24978e-16 0)
(3 5.34321e-17 0)
(3 -2.47335e-16 0)
(3 -2.36229e-16 0)
(3 2.79662e-16 0)
(3 9.28573e-16 0)
(3 1.16502e-15 0)
(3 1.57285e-15 0)
(3 1.13128e-15 0)
(3 6.6333e-16 0)
(3 2.87588e-16 0)
(3 -2.59638e-17 0)
(1.49202 0.26076 0)
(0.60933 0.293188 0)
(0.479142 0.36522 0)
(0.404185 0.33931 0)
(0.316021 0.303467 0)
(0.217273 0.273467 0)
(0.119325 0.251382 0)
(0.0339117 0.262794 0)
(3 1.45856e-16 0)
(3 -1.37483e-16 0)
(3 -8.25288e-16 0)
(3 -7.0433e-16 0)
(3 -3.40803e-16 0)
(3 -1.06253e-16 0)
(3 -5.60487e-16 0)
(3 -1.36006e-15 0)
(3 -1.78161e-15 0)
(3 -1.47732e-15 0)
(3 -2.20979e-16 0)
(3 1.02338e-15 0)
(3 1.93455e-15 0)
(3 1.18774e-15 0)
(3 1.29377e-15 0)
(3 -3.1483e-15 0)
(1.79166 0.331661 0)
(0.678168 0.413591 0)
(0.486847 0.456797 0)
(0.4633 0.406837 0)
(0.372006 0.394267 0)
(0.264573 0.369784 0)
(0.147146 0.348402 0)
(0.0459231 0.36282 0)
(3 1.80013e-16 0)
(3 -1.00807e-16 0)
(3 -4.91692e-16 0)
(3 5.82408e-17 0)
(3 3.28753e-17 0)
(3 7.32784e-17 0)
(3 -2.03937e-16 0)
(3 -1.72479e-15 0)
(3 -2.41075e-15 0)
(3 -2.03879e-15 0)
(3 -1.40094e-15 0)
(3 8.77031e-16 0)
(3 2.36755e-15 0)
(3 2.33483e-15 0)
(3 1.32481e-15 0)
(3 -5.63858e-16 0)
(2.30599 0.341594 0)
(0.790401 0.523232 0)
(0.543633 0.520654 0)
(0.531884 0.472322 0)
(0.429595 0.502151 0)
(0.303589 0.492042 0)
(0.166405 0.473774 0)
(0.0491956 0.49426 0)
(3 -6.36705e-17 0)
(3 -2.47304e-16 0)
(3 -7.99161e-17 0)
(3 -5.55075e-17 0)
(3 -3.2979e-16 0)
(3 -9.73105e-17 0)
(3 1.35084e-16 0)
(3 -1.11618e-17 0)
(3 -5.99797e-16 0)
(3 -3.86805e-16 0)
(3 -9.55255e-17 0)
(3 2.33358e-16 0)
(3 4.34654e-16 0)
(3 6.55679e-16 0)
(3 8.92545e-16 0)
(3 5.41033e-16 0)
(2.89435 0.157567 0)
(0.990491 0.58235 0)
(0.620638 0.587801 0)
(0.598297 0.557667 0)
(0.489594 0.625845 0)
(0.373926 0.627799 0)
(0.243764 0.60424 0)
(0.112457 0.654406 0)
(3 -8.19451e-17 0)
(3 -5.81558e-17 0)
(3 2.28235e-17 0)
(3 -1.60597e-16 0)
(3 -1.66712e-16 0)
(3 -2.04574e-16 0)
(3 -1.77974e-16 0)
(3 1.21365e-17 0)
(3 -4.43321e-17 0)
(3 3.08307e-16 0)
(3 7.07398e-16 0)
(3 9.29512e-17 0)
(3 -5.32517e-16 0)
(3 -1.40826e-15 0)
(3 -5.07499e-16 0)
(3 -3.49488e-16 0)
(3.01519 0.0100099 0)
(1.32086 0.595988 0)
(0.701186 0.662298 0)
(0.647261 0.664821 0)
(0.551243 0.748135 0)
(0.46839 0.748037 0)
(0.301371 0.798066 0)
(0.171553 0.966876 0)
(3 -6.53702e-17 0)
(3 -1.93973e-16 0)
(3 -4.05991e-16 0)
(3 -4.52163e-16 0)
(3 -2.37008e-16 0)
(3 -3.6974e-16 0)
(3 -2.59101e-16 0)
(3 -2.74647e-16 0)
(3 1.18179e-16 0)
(3 6.97651e-16 0)
(3 5.27116e-16 0)
(3 -4.90197e-16 0)
(3 -1.40133e-15 0)
(3 -1.25997e-15 0)
(3 -1.43992e-15 0)
(3 -1.06017e-15 0)
(3.00013 4.11504e-05 0)
(1.98832 0.545339 0)
(0.842257 0.736664 0)
(0.689246 0.793021 0)
(0.656723 0.814729 0)
(0.610108 0.862609 0)
(0.55566 1.00773 0)
(0.673257 1.30396 0)
(3 -3.51847e-16 0)
(3 -3.11242e-16 0)
(3 -4.36405e-16 0)
(3 -2.10828e-16 0)
(3 -2.62489e-16 0)
(3 -2.39158e-16 0)
(3 4.83344e-17 0)
(3 2.8187e-16 0)
(3 6.86731e-16 0)
(3 5.42984e-16 0)
(3 -6.83593e-17 0)
(3 -9.79074e-16 0)
(3 -2.04003e-15 0)
(3 -2.15777e-15 0)
(3 -2.28299e-15 0)
(3 -1.66673e-15 0)
(3 1.11127e-08 0)
(2.85292 0.235855 0)
(1.09913 0.804181 0)
(0.780128 0.863095 0)
(0.794537 0.876638 0)
(0.789728 0.942352 0)
(0.831227 1.05204 0)
(1.10081 1.2299 0)
(3 4.38979e-17 0)
(3 3.13498e-16 0)
(3 5.09716e-16 0)
(3 7.71005e-16 0)
(3 7.50322e-16 0)
(3 1.76752e-16 0)
(3 -3.1391e-16 0)
(3 -2.93082e-16 0)
(3 -1.64658e-16 0)
(3 -4.15043e-16 0)
(3 -4.47465e-16 0)
(3 -4.14867e-16 0)
(3 -8.91932e-16 0)
(3 -2.41336e-15 0)
(3 -2.90339e-15 0)
(3 -2.33253e-15 0)
(3 2.75012e-13 0)
(3.02308 0.0133106 0)
(1.61346 0.819278 0)
(0.898951 0.947624 0)
(0.925719 0.93895 0)
(0.945018 1.02139 0)
(1.022 1.1059 0)
(1.30886 1.20682 0)
(3 1.61122e-16 0)
(3 3.7428e-16 0)
(3 4.69711e-16 0)
(3 8.90938e-17 0)
(3 -1.27399e-16 0)
(3 -3.91925e-16 0)
(3 -5.52973e-16 0)
(3 -9.63296e-16 0)
(3 -8.86656e-16 0)
(3 -7.22184e-16 0)
(3 -2.91254e-16 0)
(3 -1.29534e-16 0)
(3 -2.87357e-16 0)
(3 -7.32074e-16 0)
(3 -1.15097e-15 0)
(3 -1.84651e-15 0)
(3 -1.21704e-15 0)
(3.00022 8.75022e-05 0)
(2.713 0.427726 0)
(1.21754 0.972715 0)
(1.00475 1.04274 0)
(1.08228 1.06443 0)
(1.16237 1.11745 0)
(1.42771 1.15984 0)
(3 1.18957e-17 0)
(3 1.94269e-16 0)
(3 3.06388e-16 0)
(3 -9.18865e-17 0)
(3 -4.96205e-16 0)
(3 -4.38618e-16 0)
(3 9.73963e-17 0)
(3 2.36655e-16 0)
(3 -3.42229e-17 0)
(3 1.87281e-17 0)
(3 -1.2749e-17 0)
(3 -2.66915e-16 0)
(3 -3.52417e-16 0)
(3 -1.71734e-16 0)
(3 -1.7116e-16 0)
(3 -1.68911e-16 0)
(3 -6.00245e-16 0)
(3 3.02098e-08 0)
(3.03509 0.0301894 0)
(1.86307 0.884137 0)
(1.14734 1.10474 0)
(1.19166 1.10461 0)
(1.29819 1.12371 0)
(1.4967 1.14703 0)
(3 4.90834e-17 0)
(3 -1.22514e-16 0)
(3 1.07211e-16 0)
(3 1.36569e-16 0)
(3 2.69612e-16 0)
(3 2.8749e-16 0)
(3 8.30399e-16 0)
(3 1.68694e-15 0)
(3 1.37958e-15 0)
(3 8.25592e-16 0)
(3 -3.00217e-17 0)
(3 -7.13947e-16 0)
(3 -7.56756e-16 0)
(3 -3.62295e-16 0)
(3 5.88207e-17 0)
(3 -5.0708e-18 0)
(3 -8.64289e-16 0)
(3 8.80624e-13 0)
(3.0005 0.000354162 0)
(2.9209 0.279639 0)
(1.544 1.04864 0)
(1.27541 1.18122 0)
(1.37246 1.16575 0)
(1.56755 1.13274 0)
(3 -1.45947e-16 0)
(3 -3.38119e-16 0)
(3 -2.41165e-16 0)
(3 7.4574e-16 0)
(3 9.95665e-16 0)
(3 1.09541e-15 0)
(3 8.83064e-16 0)
(3 9.7689e-16 0)
(3 9.96473e-16 0)
(3 8.45359e-16 0)
(3 9.07043e-17 0)
(3 -2.93785e-16 0)
(3 -2.55785e-16 0)
(3 1.53513e-16 0)
(3 2.45144e-16 0)
(3 -3.36967e-16 0)
(3 -8.95059e-16 0)
(3 -9.23585e-16 0)
(3 2.08408e-07 0)
(3.00888 0.0127308 0)
(2.52904 0.613376 0)
(1.51495 1.12695 0)
(1.43352 1.22845 0)
(1.56818 1.19336 0)
(3 -1.86133e-16 0)
(3 3.00675e-17 0)
(3 1.31e-16 0)
(3 6.54202e-16 0)
(3 9.77743e-16 0)
(3 8.40162e-16 0)
(3 3.06931e-16 0)
(3 -2.69659e-16 0)
(3 -3.1999e-16 0)
(3 5.88237e-17 0)
(3 1.70969e-16 0)
(3 5.72462e-16 0)
(3 4.45206e-16 0)
(3 -3.8116e-16 0)
(3 -7.86767e-16 0)
(3 -4.12487e-16 0)
(3 6.71489e-16 0)
(3 4.76741e-16 0)
(3 8.60135e-12 0)
(3.00003 6.60213e-05 0)
(3.0052 0.0652766 0)
(2.22914 0.823647 0)
(1.60703 1.18059 0)
(1.62085 1.22083 0)
(3 7.85078e-17 0)
(3 -1.76993e-17 0)
(3 -2.00876e-16 0)
(3 -3.5348e-16 0)
(3 -2.59426e-18 0)
(3 -1.93925e-17 0)
(3 1.47686e-16 0)
(3 -1.44076e-16 0)
(3 -5.19742e-16 0)
(3 -5.82224e-16 0)
(3 -2.35807e-17 0)
(3 2.62616e-16 0)
(3 1.12317e-16 0)
(3 -4.82225e-16 0)
(3 -5.31747e-16 0)
(3 -1.29407e-18 0)
(3 7.28799e-16 0)
(3 9.86911e-16 0)
(3 1.22304e-15 0)
(3 1.93241e-08 0)
(3.00033 0.00103559 0)
(2.94861 0.15405 0)
(2.15414 0.901765 0)
(1.76108 1.18667 0)
(3 3.57783e-16 0)
(3 1.44717e-16 0)
(3 -7.09015e-16 0)
(3 -1.55556e-15 0)
(3 -1.48774e-15 0)
(3 -7.93654e-16 0)
(3 -7.30633e-17 0)
(3 4.35292e-16 0)
(3 5.23838e-16 0)
(3 1.46063e-16 0)
(3 -7.10978e-16 0)
(3 -7.00522e-16 0)
(3 -1.93255e-16 0)
(3 5.11501e-17 0)
(3 1.65933e-16 0)
(3 1.42912e-16 0)
(3 3.57699e-17 0)
(3 -1.49126e-17 0)
(3 -4.50249e-16 0)
(3 7.48263e-13 0)
(3 1.01737e-06 0)
(3.00037 0.00424503 0)
(2.89453 0.218598 0)
(2.21454 0.897685 0)
(3 3.03581e-17 0)
(3 2.22419e-16 0)
(3 -3.24789e-16 0)
(3 -3.24611e-16 0)
(3 -3.08432e-16 0)
(3 -2.44392e-16 0)
(3 -7.98412e-17 0)
(3 3.94682e-16 0)
(3 1.07149e-15 0)
(3 6.23247e-16 0)
(3 -5.70244e-17 0)
(3 -4.91207e-16 0)
(3 1.1553e-16 0)
(3 4.6418e-16 0)
(3 2.66462e-16 0)
(3 -1.81731e-16 0)
(3 -2.28893e-16 0)
(3 1.89352e-16 0)
(3 4.43572e-17 0)
(3 -6.70639e-16 0)
(3 7.11221e-11 0)
(3 8.61867e-06 0)
(2.99951 0.00779704 0)
(2.88471 0.213513 0)
(3 -5.26894e-17 0)
(3 -3.55648e-17 0)
(3 2.8967e-16 0)
(3 8.87264e-16 0)
(3 1.37789e-15 0)
(3 1.35683e-15 0)
(3 7.84195e-16 0)
(3 9.76017e-18 0)
(3 -6.50757e-16 0)
(3 2.35053e-16 0)
(3 4.62778e-16 0)
(3 2.19342e-16 0)
(3 2.23085e-16 0)
(3 7.22772e-16 0)
(3 8.31439e-16 0)
(3 5.74223e-16 0)
(3 9.06081e-16 0)
(3 9.53332e-16 0)
(3 8.96681e-16 0)
(3 2.17408e-17 0)
(3 1.8193e-15 0)
(3 1.35424e-09 0)
(3 2.23281e-05 0)
(2.99889 0.00696223 0)
(3 -1.50869e-17 0)
(3 4.66434e-17 0)
(3 6.19606e-16 0)
(3 6.33785e-16 0)
(3 7.41496e-16 0)
(3 1.089e-15 0)
(3 7.11317e-16 0)
(3 -3.41551e-17 0)
(3 -1.86291e-16 0)
(3 -5.65964e-17 0)
(3 3.17986e-16 0)
(3 8.3504e-16 0)
(3 8.30997e-16 0)
(3 5.2156e-16 0)
(3 9.31507e-16 0)
(3 1.56081e-15 0)
(3 1.98919e-15 0)
(3 1.90712e-15 0)
(3 1.67193e-15 0)
(3 1.10987e-15 0)
(3 9.25499e-16 0)
(3 4.81519e-14 0)
(3 4.96152e-09 0)
(3 1.90285e-05 0)
(3 1.2374e-16 0)
(3 2.70098e-16 0)
(3 6.84173e-17 0)
(3 -1.29157e-16 0)
(3 -3.99451e-16 0)
(3 -1.74344e-16 0)
(3 6.37471e-16 0)
(3 1.81177e-16 0)
(3 5.06857e-17 0)
(3 -2.07887e-16 0)
(3 -1.38464e-16 0)
(3 -4.29652e-18 0)
(3 2.60088e-16 0)
(3 5.47e-16 0)
(3 1.26694e-15 0)
(3 2.01604e-15 0)
(3 1.47392e-15 0)
(3 1.75685e-15 0)
(3 1.73004e-15 0)
(3 8.41857e-16 0)
(3 6.57864e-16 0)
(3 -7.07757e-16 0)
(3 1.7743e-13 0)
(3 3.92861e-09 0)
(3 -6.64822e-17 0)
(3 3.94605e-17 0)
(3 -4.66195e-17 0)
(3 -1.75659e-16 0)
(3 -5.04333e-16 0)
(3 -7.56884e-17 0)
(3 5.0049e-16 0)
(3 -1.02633e-17 0)
(3 -6.52455e-16 0)
(3 -9.64707e-16 0)
(3 -8.92699e-16 0)
(3 -3.0453e-16 0)
(3 6.89349e-16 0)
(3 1.50368e-15 0)
(3 1.90764e-15 0)
(3 1.68654e-15 0)
(3 7.33093e-16 0)
(3 1.79093e-16 0)
(3 -7.97066e-16 0)
(3 -4.1579e-16 0)
(3 -7.03161e-16 0)
(3 -1.10571e-15 0)
(3 -1.65598e-15 0)
(3 1.40604e-13 0)
(3 -1.30468e-16 0)
(3 5.28504e-17 0)
(3 6.30776e-16 0)
(3 7.59019e-16 0)
(3 8.0718e-16 0)
(3 2.52735e-16 0)
(3 -1.32759e-18 0)
(3 -6.50808e-16 0)
(3 -1.02887e-15 0)
(3 -7.00895e-16 0)
(3 1.19708e-16 0)
(3 1.27254e-15 0)
(3 1.56844e-15 0)
(3 2.32745e-15 0)
(3 2.32142e-15 0)
(3 1.76996e-15 0)
(3 8.9986e-16 0)
(3 -6.82724e-16 0)
(3 -1.9755e-15 0)
(3 -1.77528e-15 0)
(3 -1.69787e-15 0)
(3 -5.45537e-16 0)
(3 2.34952e-16 0)
(3 5.16281e-16 0)
(3 -1.30392e-16 0)
(3 -3.91325e-16 0)
(3 -3.28472e-16 0)
(3 3.72479e-16 0)
(3 1.0689e-15 0)
(3 6.6415e-16 0)
(3 -2.45443e-16 0)
(3 -6.92431e-16 0)
(3 -3.04634e-16 0)
(3 5.17767e-16 0)
(3 1.2031e-15 0)
(3 8.72175e-16 0)
(3 6.53941e-16 0)
(3 5.02288e-16 0)
(3 4.3723e-16 0)
(3 -2.838e-16 0)
(3 -3.27122e-16 0)
(3 -3.95098e-16 0)
(3 -8.76744e-16 0)
(3 -2.5192e-15 0)
(3 -3.71884e-15 0)
(3 -1.87037e-15 0)
(3 -8.84837e-16 0)
(3 -1.14237e-15 0)
(3 -4.38467e-17 0)
(3 -7.70389e-16 0)
(3 -7.56338e-16 0)
(3 -6.73105e-16 0)
(3 -5.28026e-16 0)
(3 -2.48403e-16 0)
(3 2.39898e-16 0)
(3 7.03628e-16 0)
(3 1.18701e-15 0)
(3 1.33208e-15 0)
(3 1.14062e-15 0)
(3 6.80192e-16 0)
(3 3.66615e-16 0)
(3 3.25698e-16 0)
(3 5.81665e-16 0)
(3 -2.33799e-16 0)
(3 -8.40279e-16 0)
(3 -6.4139e-16 0)
(3 -6.5116e-16 0)
(3 -1.07572e-15 0)
(3 -3.14762e-16 0)
(3 -4.82151e-16 0)
(3 -5.40777e-16 0)
(3 -5.46218e-16 0)
(3 2.99809e-16 0)
(3 -2.11883e-16 0)
(3 -3.26326e-16 0)
(3 -1.05057e-15 0)
(3 -1.38974e-15 0)
(3 -1.34487e-15 0)
(3 -3.28671e-16 0)
(3 9.80009e-16 0)
(3 1.23766e-15 0)
(3 1.19304e-15 0)
(3 6.23891e-16 0)
(3 9.08822e-17 0)
(3 3.57422e-16 0)
(3 1.02332e-15 0)
(3 6.13078e-16 0)
(3 3.42248e-16 0)
(3 2.6085e-17 0)
(3 -3.14261e-16 0)
(3 -2.15401e-16 0)
(3 1.06824e-15 0)
(3 2.65395e-15 0)
(3 1.9803e-15 0)
(3 1.87401e-15 0)
(3 1.44909e-15 0)
(3 1.6947e-16 0)
(3 4.52052e-16 0)
(3 3.29572e-16 0)
(3 1.09051e-16 0)
(3 -1.4332e-16 0)
(3 8.33692e-18 0)
(3 1.99209e-16 0)
(3 3.61218e-16 0)
(3 1.15627e-15 0)
(3 1.29991e-15 0)
(3 1.07753e-15 0)
(3 1.44054e-16 0)
(3 -3.95306e-16 0)
(3 -7.21759e-16 0)
(3 -1.32616e-15 0)
(3 1.68133e-16 0)
(3 7.7591e-16 0)
(3 7.66746e-16 0)
(3 1.61776e-15 0)
(3 2.021e-15 0)
(3 1.92486e-15 0)
(3 2.21859e-15 0)
(3 2.64379e-15 0)
(3 2.39421e-15 0)
(3 1.84325e-16 0)
(3 4.57381e-16 0)
(3 7.62711e-16 0)
(3 8.75398e-16 0)
(3 9.0207e-16 0)
(3 1.127e-15 0)
(3 1.80511e-15 0)
(3 1.10628e-15 0)
(3 7.23565e-16 0)
(3 1.03907e-15 0)
(3 7.5066e-16 0)
(3 6.68565e-16 0)
(3 -8.31181e-16 0)
(3 -2.5049e-15 0)
(3 -2.25225e-15 0)
(3 -1.11697e-15 0)
(3 -5.08275e-17 0)
(3 7.90753e-16 0)
(3 9.48225e-16 0)
(3 6.63695e-16 0)
(3 1.57853e-16 0)
(3 1.22758e-15 0)
(3 1.11015e-15 0)
(3 1.62538e-15 0)
(3 -3.16271e-17 0)
(3 -1.99599e-16 0)
(3 -6.99029e-17 0)
(3 7.90476e-17 0)
(3 3.63034e-16 0)
(3 2.53779e-16 0)
(3 2.93936e-16 0)
(3 2.32843e-16 0)
(3 2.70077e-17 0)
(3 -5.5408e-16 0)
(3 -4.70224e-16 0)
(3 -1.68781e-16 0)
(3 -5.24452e-16 0)
(3 -1.68445e-15 0)
(3 -1.84465e-15 0)
(3 -1.3779e-15 0)
(3 -6.56284e-16 0)
(3 1.19052e-16 0)
(3 3.48204e-16 0)
(3 7.3723e-16 0)
(3 1.20612e-15 0)
(3 2.58843e-15 0)
(3 2.29486e-15 0)
(3 2.10425e-15 0)
(3 -1.61611e-16 0)
(3 9.04381e-17 0)
(3 2.98167e-16 0)
(3 1.57667e-16 0)
(3 2.90981e-16 0)
(3 -1.15139e-16 0)
(3 -7.25018e-16 0)
(3 -6.24464e-16 0)
(3 -4.73059e-16 0)
(3 -9.08e-16 0)
(3 -1.03884e-15 0)
(3 -9.57055e-16 0)
(3 -7.17085e-16 0)
(3 -6.21573e-16 0)
(3 -6.21441e-16 0)
(3 -1.30499e-16 0)
(3 2.84215e-16 0)
(3 4.54923e-16 0)
(3 1.14307e-15 0)
(3 1.95107e-15 0)
(3 2.43556e-15 0)
(3 2.79443e-15 0)
(3 3.42448e-15 0)
(3 4.13449e-15 0)
(3 1.23013e-16 0)
(3 4.10833e-16 0)
(3 3.59645e-16 0)
(3 4.6459e-16 0)
(3 -3.086e-16 0)
(3 -1.15614e-15 0)
(3 -1.05334e-15 0)
(3 -2.73122e-16 0)
(3 -4.66571e-17 0)
(3 -2.05439e-17 0)
(3 -1.99121e-16 0)
(3 -4.42971e-16 0)
(3 -8.79272e-16 0)
(3 -1.04534e-15 0)
(3 -7.14463e-16 0)
(3 8.96214e-17 0)
(3 1.62461e-16 0)
(3 5.7881e-16 0)
(3 1.08956e-15 0)
(3 1.18864e-15 0)
(3 9.12248e-16 0)
(3 1.23352e-15 0)
(3 2.03948e-15 0)
(3 2.63413e-15 0)
(3 -2.31713e-17 0)
(3 -1.6818e-16 0)
(3 -7.85621e-17 0)
(3 -6.27153e-17 0)
(3 -3.15118e-16 0)
(3 -4.92478e-16 0)
(3 -4.76765e-16 0)
(3 -3.10402e-16 0)
(3 -3.64525e-16 0)
(3 -3.91133e-16 0)
(3 -3.69504e-16 0)
(3 -5.92512e-16 0)
(3 -7.71077e-16 0)
(3 -1.31646e-15 0)
(3 -1.29445e-15 0)
(3 -1.044e-15 0)
(3 -1.22423e-15 0)
(3 -1.28165e-15 0)
(3 -9.14461e-16 0)
(3 -7.37097e-16 0)
(3 -9.64509e-16 0)
(3 -6.77095e-16 0)
(3 1.68648e-16 0)
(3 1.01956e-15 0)
(3 -1.0573e-16 0)
(3 -1.2639e-16 0)
(3 -2.34373e-16 0)
(3 -4.95273e-16 0)
(3 1.45155e-16 0)
(3 1.08048e-15 0)
(3 7.65557e-16 0)
(3 -1.15609e-16 0)
(3 -8.82282e-16 0)
(3 -9.80653e-16 0)
(3 -9.24327e-16 0)
(3 -1.32867e-15 0)
(3 -1.3712e-15 0)
(3 -1.46635e-15 0)
(3 -1.84428e-15 0)
(3 -1.88073e-15 0)
(3 -1.49059e-15 0)
(3 -1.1113e-15 0)
(3 -7.96034e-16 0)
(3 -8.63046e-16 0)
(3 -1.0507e-15 0)
(3 -9.94825e-16 0)
(3 -6.82657e-16 0)
(3 -5.96971e-16 0)
(3 2.51594e-17 0)
(3 5.64309e-17 0)
(3 -4.55907e-18 0)
(3 -2.93376e-17 0)
(3 3.37491e-16 0)
(3 1.26361e-15 0)
(3 1.60838e-15 0)
(3 9.77944e-16 0)
(3 -5.07422e-16 0)
(3 -1.19196e-15 0)
(3 -1.02713e-15 0)
(3 -8.95047e-16 0)
(3 -9.45629e-16 0)
(3 -6.97402e-16 0)
(3 -1.11444e-15 0)
(3 -1.78392e-15 0)
(3 -4.15074e-16 0)
(3 7.55347e-17 0)
(3 -1.54411e-16 0)
(3 -1.09009e-15 0)
(3 -1.32654e-15 0)
(3 -1.49029e-15 0)
(3 -1.6596e-15 0)
(3 -1.53054e-15 0)
(3 -9.57307e-18 0)
(3 -2.05583e-17 0)
(3 1.16885e-20 0)
(3 4.42558e-17 0)
(3 1.90553e-16 0)
(3 2.35409e-16 0)
(3 4.54424e-16 0)
(3 -3.4769e-16 0)
(3 -7.36052e-16 0)
(3 -9.70794e-16 0)
(3 -6.3775e-16 0)
(3 -8.89062e-16 0)
(3 -4.56782e-16 0)
(3 -3.88622e-16 0)
(3 -3.90244e-16 0)
(3 -5.20031e-16 0)
(3 4.14287e-16 0)
(3 5.44106e-16 0)
(3 5.27164e-16 0)
(3 -7.94033e-16 0)
(3 -7.50034e-16 0)
(3 -2.41106e-16 0)
(3 -1.71466e-16 0)
(3 -1.60441e-15 0)
(3 1.04339e-16 0)
(3 1.01275e-16 0)
(3 -2.28771e-16 0)
(3 -7.83469e-17 0)
(3 -5.05549e-16 0)
(3 -1.54708e-15 0)
(3 -2.08988e-15 0)
(3 -1.95375e-15 0)
(3 -7.21007e-16 0)
(3 5.13431e-16 0)
(3 9.03978e-16 0)
(3 1.06122e-15 0)
(3 1.29346e-15 0)
(3 1.10512e-15 0)
(3 9.64005e-16 0)
(3 5.44479e-16 0)
(3 3.00648e-16 0)
(3 -6.49836e-16 0)
(3 -1.92132e-15 0)
(3 -1.73547e-15 0)
(3 -1.34372e-15 0)
(3 -8.64498e-16 0)
(3 -4.13764e-16 0)
(3 -3.88748e-16 0)
(3 7.31482e-18 0)
(3 -1.36805e-17 0)
(3 -1.75066e-16 0)
(3 -2.18792e-16 0)
(3 -1.22778e-15 0)
(3 -2.12939e-15 0)
(3 -2.62348e-15 0)
(3 -2.01772e-15 0)
(3 -7.14673e-17 0)
(3 1.69059e-15 0)
(3 2.23603e-15 0)
(3 3.22954e-15 0)
(3 3.14378e-15 0)
(3 2.20262e-15 0)
(3 1.85449e-15 0)
(3 1.00662e-15 0)
(3 4.73562e-17 0)
(3 -1.35797e-15 0)
(3 -2.64356e-15 0)
(3 -3.42636e-15 0)
(3 -2.96638e-15 0)
(3 -2.80254e-15 0)
(3 -1.59741e-15 0)
(3 -3.30701e-16 0)
(3 -4.20059e-17 0)
(3 -3.33022e-16 0)
(3 -7.10929e-16 0)
(3 -1.31917e-15 0)
(3 -1.46091e-15 0)
(3 -8.80096e-16 0)
(3 -3.65884e-16 0)
(3 -1.38113e-16 0)
(3 1.49896e-15 0)
(3 2.74556e-15 0)
(3 2.83681e-15 0)
(3 2.23299e-15 0)
(3 2.08597e-15 0)
(3 1.99781e-15 0)
(3 1.58263e-15 0)
(3 -1.67514e-16 0)
(3 -7.43854e-16 0)
(3 -1.17515e-15 0)
(3 -1.7991e-15 0)
(3 -3.00578e-15 0)
(3 -3.00636e-15 0)
(3 -1.78752e-15 0)
(3 -6.57262e-16 0)
(3 -5.93603e-16 0)
(3 2.00746e-16 0)
(3 -3.64649e-16 0)
(3 -4.95274e-16 0)
(3 -5.26153e-16 0)
(3 -5.48257e-16 0)
(3 3.20492e-17 0)
(3 7.51498e-16 0)
(3 9.47942e-16 0)
(3 1.61223e-15 0)
(3 2.14169e-15 0)
(3 1.93798e-15 0)
(3 8.89145e-16 0)
(3 7.67767e-16 0)
(3 9.21853e-16 0)
(3 1.07104e-15 0)
(3 8.53785e-17 0)
(3 -1.18206e-16 0)
(3 -4.06629e-16 0)
(3 -1.12142e-15 0)
(3 -1.38618e-15 0)
(3 -2.3705e-15 0)
(3 -1.68014e-15 0)
(3 -9.34583e-16 0)
(3 -1.00637e-15 0)
(1.676 1.43106 0)
(2.1816 1.37349 0)
(2.71219 1.0638 0)
(2.9947 0.76947 0)
(2.957 0.396872 0)
(2.83819 0.111018 0)
(2.58788 -0.259688 0)
(2.47328 -0.297598 0)
(2.5075 -0.195139 0)
(2.56919 -0.105986 0)
(2.63372 -0.0637763 0)
(2.70535 -0.0509045 0)
(2.78636 -0.0561067 0)
(2.83599 -0.0593854 0)
(2.82925 -0.0519131 0)
(2.8096 -0.0412602 0)
(2.7956 -0.0347242 0)
(2.8112 -0.0324185 0)
(2.8587 -0.0199245 0)
(2.92786 0.000408354 0)
(2.94822 0.00798432 0)
(2.94167 0.0112519 0)
(2.91564 0.0166241 0)
(2.89507 0.0166032 0)
(2.86079 0.0140362 0)
(2.83426 0.0116854 0)
(2.8295 0.0107544 0)
(2.84857 0.00952009 0)
(2.87876 0.0022383 0)
(2.90564 -0.00807277 0)
(2.92274 -0.0142571 0)
(2.9232 -0.0157812 0)
(2.91764 -0.0163999 0)
(2.92943 -0.0156024 0)
(2.95249 -0.0129349 0)
(2.97701 -0.00900753 0)
(2.99805 -0.00431217 0)
(3.01627 -0.00184924 0)
(3.03045 -0.00108169 0)
(3.03549 -0.000734181 0)
(3.036 -0.000539401 0)
(3.0364 2.17883e-05 0)
(3.03521 0.000587711 0)
(3.03126 0.000868313 0)
(3.02296 0.000779327 0)
(3.01001 0.000355998 0)
(3.00133 4.55326e-05 0)
(3.00002 6.74519e-07 0)
(3 -2.78485e-08 0)
(3 -2.50524e-08 0)
(3 -2.01284e-08 0)
(3 -1.14117e-08 0)
(3 -3.75001e-09 0)
(3 -3.5177e-10 0)
(3 -1.98811e-12 0)
(3 1.39437e-12 0)
(3 1.1593e-12 0)
(3 6.8323e-13 0)
(3 1.74132e-13 0)
(3 8.18039e-15 0)
(3 1.18066e-16 0)
(3 2.26747e-16 0)
(3 -4.148e-16 0)
(3 -1.49489e-15 0)
(3 -1.07182e-15 0)
(3 -1.03631e-15 0)
(3 -9.85358e-16 0)
(3 -7.78934e-17 0)
(3 6.63815e-16 0)
(3 6.09843e-16 0)
(3 6.33664e-16 0)
(3 6.21175e-16 0)
(3 2.45316e-16 0)
(3 2.40716e-16 0)
(3 9.16389e-16 0)
(3 4.34569e-16 0)
(3 -1.33614e-18 0)
(3 -4.92541e-16 0)
(3 -2.54166e-16 0)
(3 7.18555e-16 0)
(3 7.05505e-16 0)
(3 -1.35664e-16 0)
(3 -3.66868e-16 0)
(3 -3.8982e-16 0)
(3 6.20025e-17 0)
(3 7.40253e-16 0)
(3 1.15252e-15 0)
(3 1.40524e-15 0)
(3 1.59146e-15 0)
(3 1.24793e-15 0)
(3 6.68174e-16 0)
(3 -2.11222e-16 0)
(3 -4.86749e-16 0)
(3 2.89702e-16 0)
(3 6.1271e-16 0)
(3 9.52427e-16 0)
(1.96855 1.19888 0)
(2.50873 0.907601 0)
(2.80595 0.304276 0)
(2.95286 -0.0239971 0)
(3.06188 -0.161242 0)
(2.94722 -0.415233 0)
(2.87194 -0.59784 0)
(2.82897 -0.539703 0)
(2.753 -0.349057 0)
(2.70196 -0.101066 0)
(2.72562 0.00914185 0)
(2.7597 0.0120956 0)
(2.80797 -0.0206869 0)
(2.83959 -0.0388215 0)
(2.83022 -0.0462844 0)
(2.81339 -0.0625253 0)
(2.82185 -0.0625361 0)
(2.8475 -0.0443233 0)
(2.89665 -0.0106783 0)
(2.94151 0.0245439 0)
(2.95388 0.0417356 0)
(2.94746 0.044591 0)
(2.93708 0.0405987 0)
(2.91466 0.0287311 0)
(2.88642 0.0119221 0)
(2.8665 0.000701752 0)
(2.86396 4.97589e-05 0)
(2.87896 0.00659859 0)
(2.90001 0.00897019 0)
(2.91553 0.00308358 0)
(2.92081 -0.00710832 0)
(2.91134 -0.0166292 0)
(2.90642 -0.0201326 0)
(2.92219 -0.0206904 0)
(2.95149 -0.0202663 0)
(2.979 -0.0172935 0)
(2.99861 -0.0127939 0)
(3.01331 -0.00810234 0)
(3.02723 -0.00498844 0)
(3.03694 -0.00338926 0)
(3.03888 -0.00254755 0)
(3.039 -0.00159201 0)
(3.0377 0.000799472 0)
(3.03299 0.0029077 0)
(3.02289 0.00312867 0)
(3.00855 0.00143816 0)
(3.00085 0.000152648 0)
(3.00001 1.60119e-06 0)
(3 -6.51001e-08 0)
(3 -6.45577e-08 0)
(3 -5.81802e-08 0)
(3 -4.19693e-08 0)
(3 -1.60439e-08 0)
(3 -1.47188e-09 0)
(3 -9.04546e-12 0)
(3 3.34439e-12 0)
(3 3.03636e-12 0)
(3 2.01654e-12 0)
(3 5.0153e-13 0)
(3 1.92963e-14 0)
(3 1.45337e-18 0)
(3 4.00522e-16 0)
(3 -1.03355e-15 0)
(3 -3.02864e-15 0)
(3 -2.73256e-15 0)
(3 -1.848e-15 0)
(3 -1.87271e-15 0)
(3 2.42759e-16 0)
(3 1.00872e-15 0)
(3 1.15334e-15 0)
(3 1.20997e-15 0)
(3 1.07089e-15 0)
(3 1.10302e-15 0)
(3 1.12569e-15 0)
(3 1.09806e-15 0)
(3 8.45363e-16 0)
(3 -4.1944e-16 0)
(3 -1.02038e-15 0)
(3 -7.78451e-16 0)
(3 5.60212e-16 0)
(3 1.51808e-15 0)
(3 7.75592e-16 0)
(3 5.76844e-16 0)
(3 1.75117e-18 0)
(3 3.70949e-16 0)
(3 8.1685e-16 0)
(3 1.3497e-15 0)
(3 1.33075e-15 0)
(3 1.80115e-15 0)
(3 2.00415e-15 0)
(3 8.61611e-16 0)
(3 -2.92205e-16 0)
(3 -5.86253e-16 0)
(3 -1.07795e-15 0)
(3 -3.49079e-16 0)
(3 7.85211e-16 0)
(1.88407 1.13395 0)
(2.23654 1.04562 0)
(2.53084 0.726237 0)
(2.76321 0.298365 0)
(2.88715 0.204222 0)
(2.93891 0.104007 0)
(2.94654 -0.140988 0)
(2.94899 -0.219922 0)
(2.95523 -0.152796 0)
(2.92496 -0.110039 0)
(2.90208 -0.0814682 0)
(2.90057 -0.122438 0)
(2.94168 -0.162169 0)
(2.95624 -0.138326 0)
(2.94517 -0.110281 0)
(2.93482 -0.107053 0)
(2.93364 -0.0920794 0)
(2.94328 -0.0491381 0)
(2.96452 0.00741725 0)
(2.97589 0.0248141 0)
(2.97137 0.0191343 0)
(2.96432 0.00228698 0)
(2.96392 -0.0243145 0)
(2.96403 -0.0449995 0)
(2.95858 -0.0442989 0)
(2.94891 -0.029708 0)
(2.94043 -0.0181318 0)
(2.93676 -0.0171844 0)
(2.93766 -0.0226823 0)
(2.94117 -0.0306487 0)
(2.94486 -0.0429834 0)
(2.94253 -0.0512578 0)
(2.93867 -0.0461615 0)
(2.94529 -0.0366043 0)
(2.96288 -0.0294611 0)
(2.98462 -0.0250517 0)
(3.00404 -0.0223298 0)
(3.02134 -0.0183164 0)
(3.03645 -0.011131 0)
(3.04298 -0.00409223 0)
(3.04302 -0.00128134 0)
(3.04146 0.00109551 0)
(3.03788 0.00417337 0)
(3.03168 0.00620241 0)
(3.01962 0.00506238 0)
(3.00542 0.00151889 0)
(3.00031 8.24891e-05 0)
(3 2.09372e-07 0)
(3 -1.3846e-07 0)
(3 -1.34182e-07 0)
(3 -1.22406e-07 0)
(3 -8.49313e-08 0)
(3 -2.46536e-08 0)
(3 -1.34165e-09 0)
(3 1.02721e-12 0)
(3 6.08449e-12 0)
(3 5.43135e-12 0)
(3 2.96447e-12 0)
(3 4.76062e-13 0)
(3 1.03038e-14 0)
(3 3.64112e-16 0)
(3 -2.79574e-16 0)
(3 -1.82073e-15 0)
(3 -2.39266e-15 0)
(3 -2.33442e-15 0)
(3 -1.42118e-15 0)
(3 -1.36568e-15 0)
(3 -1.54119e-15 0)
(3 -8.74176e-16 0)
(3 5.16744e-16 0)
(3 5.48532e-16 0)
(3 3.96012e-16 0)
(3 -1.64579e-16 0)
(3 -8.93791e-16 0)
(3 1.12642e-16 0)
(3 5.95014e-16 0)
(3 6.57915e-16 0)
(3 1.94364e-16 0)
(3 -6.5846e-16 0)
(3 -6.87041e-18 0)
(3 1.7729e-15 0)
(3 1.70778e-15 0)
(3 1.12699e-15 0)
(3 5.8786e-16 0)
(3 1.70599e-16 0)
(3 -2.30015e-16 0)
(3 -2.21269e-16 0)
(3 -4.64021e-16 0)
(3 -1.76425e-16 0)
(3 6.36781e-17 0)
(3 -1.77053e-16 0)
(3 -1.6448e-16 0)
(3 -2.7679e-16 0)
(3 -4.76848e-16 0)
(3 1.55198e-16 0)
(3 1.47595e-15 0)
(1.81893 1.10154 0)
(2.12592 1.01 0)
(2.38131 0.822901 0)
(2.5897 0.531083 0)
(2.71838 0.415784 0)
(2.83564 0.31612 0)
(2.95999 0.0301048 0)
(2.97767 -0.159642 0)
(3.03864 -0.160936 0)
(3.07707 -0.16289 0)
(3.0405 -0.212963 0)
(3.04698 -0.2562 0)
(3.07382 -0.260311 0)
(3.0714 -0.233175 0)
(3.07359 -0.179674 0)
(3.06566 -0.157663 0)
(3.03797 -0.131793 0)
(3.02128 -0.087536 0)
(3.01788 -0.0490337 0)
(3.01142 -0.0317901 0)
(3.0051 -0.0236188 0)
(3.00827 -0.0120176 0)
(3.02373 -0.000299515 0)
(3.04282 0.0111849 0)
(3.04851 0.030755 0)
(3.03563 0.0515282 0)
(3.01357 0.0586893 0)
(2.99269 0.045946 0)
(2.97926 0.0171371 0)
(2.97228 -0.0178124 0)
(2.9684 -0.0480696 0)
(2.96783 -0.0635111 0)
(2.97272 -0.0640119 0)
(2.98279 -0.0560315 0)
(2.99102 -0.0460147 0)
(2.99893 -0.0371937 0)
(3.0099 -0.0303638 0)
(3.02873 -0.0230866 0)
(3.04712 -0.0122239 0)
(3.05012 -0.00406033 0)
(3.04815 -0.000216889 0)
(3.04549 0.00326115 0)
(3.03987 0.00670625 0)
(3.03023 0.00805308 0)
(3.01435 0.00469369 0)
(3.00217 0.000729044 0)
(3.00004 1.33019e-05 0)
(3 -1.91464e-07 0)
(3 -1.89196e-07 0)
(3 -1.74634e-07 0)
(3 -1.44652e-07 0)
(3 -7.43425e-08 0)
(3 -1.15287e-08 0)
(3 -2.16251e-10 0)
(3 8.65554e-12 0)
(3 8.29582e-12 0)
(3 6.31037e-12 0)
(3 2.32282e-12 0)
(3 1.79712e-13 0)
(3 6.87129e-16 0)
(3 -4.36048e-16 0)
(3 -5.18237e-16 0)
(3 -1.60308e-15 0)
(3 -1.95701e-15 0)
(3 -1.64112e-15 0)
(3 -1.50925e-15 0)
(3 -1.36092e-15 0)
(3 -1.04837e-15 0)
(3 1.38778e-17 0)
(3 2.21572e-16 0)
(3 -4.22042e-16 0)
(3 -1.01383e-15 0)
(3 -9.68686e-16 0)
(3 -6.86482e-16 0)
(3 -5.33791e-16 0)
(3 -1.17845e-16 0)
(3 1.04346e-15 0)
(3 1.45391e-15 0)
(3 1.0728e-15 0)
(3 7.34787e-16 0)
(3 2.43046e-16 0)
(3 5.9316e-16 0)
(3 8.75319e-17 0)
(3 -7.53121e-17 0)
(3 5.67545e-17 0)
(3 2.38697e-16 0)
(3 1.2429e-17 0)
(3 -2.37172e-16 0)
(3 -5.21415e-16 0)
(3 -8.29287e-16 0)
(3 2.37496e-16 0)
(3 3.94136e-16 0)
(3 1.62896e-17 0)
(3 -1.15538e-16 0)
(3 2.59104e-16 0)
(3 1.13904e-15 0)
(1.78743 1.09783 0)
(2.04719 1.00815 0)
(2.24851 0.898176 0)
(2.45266 0.687811 0)
(2.59879 0.548164 0)
(2.69655 0.504043 0)
(2.82212 0.343928 0)
(2.91101 0.134081 0)
(2.99 0.0578192 0)
(3.03884 0.0715028 0)
(3.02267 0.0108762 0)
(3.02617 -0.0787288 0)
(3.03607 -0.110026 0)
(3.0894 -0.0929531 0)
(3.09591 -0.0820179 0)
(3.08847 -0.0793917 0)
(3.07306 -0.104574 0)
(3.07677 -0.122831 0)
(3.07994 -0.11171 0)
(3.07151 -0.0838793 0)
(3.06466 -0.0541329 0)
(3.07545 -0.0409064 0)
(3.10012 -0.0419075 0)
(3.11815 -0.0443953 0)
(3.1119 -0.0315753 0)
(3.08789 -0.00765443 0)
(3.06116 0.00501717 0)
(3.03849 -0.00397897 0)
(3.01903 -0.0299717 0)
(3.00098 -0.0555305 0)
(2.9882 -0.0682621 0)
(2.9859 -0.0730751 0)
(2.99331 -0.0740285 0)
(3.00462 -0.0695488 0)
(3.01398 -0.0579131 0)
(3.02166 -0.0436899 0)
(3.02876 -0.0312479 0)
(3.04091 -0.0181068 0)
(3.05529 -0.00323105 0)
(3.05619 0.00478048 0)
(3.05311 0.00752924 0)
(3.04985 0.0101027 0)
(3.04195 0.0120574 0)
(3.027 0.00989249 0)
(3.00796 0.00306718 0)
(3.00047 0.000163433 0)
(3 3.37496e-07 0)
(3 -2.69803e-07 0)
(3 -2.59922e-07 0)
(3 -2.36058e-07 0)
(3 -1.56811e-07 0)
(3 -4.3954e-08 0)
(3 -2.27937e-09 0)
(3 3.05363e-12 0)
(3 1.0673e-11 0)
(3 9.32108e-12 0)
(3 5.15185e-12 0)
(3 9.11926e-13 0)
(3 2.03977e-14 0)
(3 -1.20017e-15 0)
(3 -1.13447e-15 0)
(3 -2.41535e-16 0)
(3 2.84155e-16 0)
(3 -3.55521e-16 0)
(3 -1.31433e-15 0)
(3 -1.97892e-15 0)
(3 -1.77375e-15 0)
(3 -4.22527e-16 0)
(3 -4.9967e-16 0)
(3 -1.41368e-15 0)
(3 -1.47487e-15 0)
(3 -1.36499e-15 0)
(3 -6.27709e-16 0)
(3 6.39386e-16 0)
(3 6.71139e-16 0)
(3 5.314e-16 0)
(3 8.74695e-16 0)
(3 2.00659e-15 0)
(3 2.343e-15 0)
(3 5.3233e-16 0)
(3 -1.64801e-15 0)
(3 -7.16532e-16 0)
(3 -7.44786e-16 0)
(3 -6.02165e-16 0)
(3 3.76083e-16 0)
(3 9.82129e-16 0)
(3 1.22936e-15 0)
(3 9.72282e-16 0)
(3 -4.09292e-16 0)
(3 -8.3503e-16 0)
(3 -9.01011e-17 0)
(3 6.15508e-16 0)
(3 9.25102e-16 0)
(3 4.43947e-16 0)
(3 -1.19175e-16 0)
(3 6.46697e-16 0)
(1.78277 1.09564 0)
(1.98227 1.04596 0)
(2.18808 0.936023 0)
(2.34375 0.80267 0)
(2.45076 0.733861 0)
(2.60218 0.631421 0)
(2.78031 0.43159 0)
(2.84694 0.28445 0)
(2.90135 0.274267 0)
(2.95038 0.262591 0)
(2.98953 0.141492 0)
(3.01957 -9.6444e-05 0)
(3.01786 -0.0783496 0)
(3.07869 -0.0708693 0)
(3.11879 -0.0888317 0)
(3.11751 -0.103718 0)
(3.10863 -0.155478 0)
(3.11494 -0.16398 0)
(3.11789 -0.156537 0)
(3.11197 -0.142947 0)
(3.10306 -0.129388 0)
(3.11057 -0.123529 0)
(3.12737 -0.127854 0)
(3.13201 -0.128637 0)
(3.11935 -0.116091 0)
(3.09467 -0.0962406 0)
(3.06808 -0.0858105 0)
(3.04821 -0.0914391 0)
(3.03238 -0.10485 0)
(3.01652 -0.111672 0)
(3.00265 -0.106578 0)
(2.99676 -0.0953499 0)
(3.0029 -0.0832491 0)
(3.01479 -0.0725947 0)
(3.02654 -0.0659755 0)
(3.03672 -0.0607351 0)
(3.04858 -0.0461444 0)
(3.06375 -0.0208691 0)
(3.07009 0.00249301 0)
(3.06589 0.0107725 0)
(3.06187 0.0149031 0)
(3.0547 0.0184028 0)
(3.04059 0.0179494 0)
(3.01811 0.00887589 0)
(3.00232 0.00105039 0)
(3.00003 1.22375e-05 0)
(3 -3.35106e-07 0)
(3 -3.25252e-07 0)
(3 -2.90988e-07 0)
(3 -2.17997e-07 0)
(3 -9.09151e-08 0)
(3 -9.88016e-09 0)
(3 -9.73177e-11 0)
(3 1.21719e-11 0)
(3 1.1311e-11 0)
(3 7.72057e-12 0)
(3 2.282e-12 0)
(3 1.22106e-13 0)
(3 -1.06603e-15 0)
(3 -1.34512e-15 0)
(3 -1.67064e-15 0)
(3 -9.29108e-16 0)
(3 -3.63234e-16 0)
(3 -1.84221e-16 0)
(3 -2.80509e-16 0)
(3 1.72662e-16 0)
(3 1.75445e-16 0)
(3 1.21528e-16 0)
(3 -1.27606e-16 0)
(3 -1.09131e-15 0)
(3 -1.16959e-15 0)
(3 -8.31577e-16 0)