/*--------------------------------*- C++ -*----------------------------------*\
  =========                 |
  \\      /  F ield         | OpenFOAM: The Open Source CFD Toolbox
   \\    /   O peration     | Website:  https://openfoam.org
    \\  /    A nd           | Version:  7
     \\/     M anipulation  |
\*---------------------------------------------------------------------------*/
FoamFile
{
    version     2.0;
    format      ascii;
    class       volScalarField;
    location    "2.3";
    object      p;
}
// * * * * * * * * * * * * * * * * * * * * * * * * * * * * * * * * * * * * * //

dimensions      [1 -1 -2 0 0 0 0];

internalField   nonuniform List<scalar> 
4032
(
1
1
1
1
1
1
1
1
1
1
1
1
5.74752
10.5347
10.7334
10.9207
11.1147
11.2967
11.4694
11.6285
11.7708
11.8879
11.9793
12.045
1
1
1
1
1
1
1
1
1
1
1
1
5.58105
10.4678
10.7084
10.8946
11.0876
11.2652
11.4314
11.5823
11.7161
11.8256
11.9108
11.9738
1
1
1
1
1
1
1
1
1
1
1
1
5.2345
10.3816
10.6625
10.8459
11.0379
11.2116
11.3719
11.5146
11.6388
11.7391
11.8138
11.8739
1
1
1
1
1
1
1
1
1
1
1
1
4.73254
10.2342
10.5998
10.7774
10.9668
11.1347
11.288
11.4224
11.5362
11.6218
11.675
11.712
1
1
1
1
1
1
1
1
1
1
1
1
4.08912
9.9824
10.5128
10.6807
10.8609
11.0145
11.1494
11.2612
11.3516
11.4223
11.4666
11.5235
1
1
1
1
1
1
1
1
1
1
1
1
3.35536
9.5921
10.4318
10.5833
10.7483
10.879
10.9869
11.0766
11.1485
11.2028
11.2142
11.1754
1
1
1
1
1
1
1
1
1
1
1
1
2.53373
8.97827
10.3734
10.4926
10.6317
10.7342
10.8082
10.8554
10.8631
10.8136
10.7377
10.6888
1
1
1
1
1
1
1
1
1
1
1
1
1.70027
8.12939
10.3311
10.3484
10.4851
10.5678
10.598
10.5963
10.5374
10.4347
10.2912
10.2637
1
1
1
1
1
1
1
1
1
1
1
1
1.06984
6.96746
10.289
10.2301
10.2855
10.3283
10.3189
10.2763
10.1303
9.85104
9.07989
7.19838
1
1
1
1
1
1
1
1
1
1
1
1
1.00049
5.40969
9.73319
9.90461
10.0087
10.0453
9.99779
9.90735
9.67274
9.20272
8.39433
6.33819
1
1
1
1
1
1
1
1
1
1
1
1
0.999994
3.71229
9.15025
9.78696
9.82455
9.81609
9.72086
9.55607
9.2486
8.67924
7.83045
5.9113
1
1
1
1
1
1
1
1
1
1
1
1
0.999999
2.09413
8.21872
9.6945
9.65629
9.59249
9.45287
9.22684
8.85673
8.28803
7.35388
5.79852
1
1
1
1
1
1
1
1
1
1
1
1
1
1.12574
6.5574
9.47429
9.44519
9.35015
9.17559
8.91879
8.52424
7.97268
7.04768
5.8671
1
1
1
1
1
1
1
1
1
1
1
1
1
1.00114
4.40509
8.95676
9.23528
9.11931
8.9211
8.6464
8.25781
7.70707
6.87296
5.93126
1
1
1
1
1
1
1
1
1
1
1
1
1
0.999989
2.12892
8.06711
9.15405
8.91752
8.7072
8.41529
8.05131
7.49766
6.78565
6.01203
1
1
1
1
1
1
1
1
1
1
1
1
1
0.999997
1.10644
6.21592
8.81984
8.61058
8.47456
8.21116
7.85223
7.34392
6.73268
6.06673
1
1
1
1
1
1
1
1
1
1
1
1
1
1
1.00069
3.45717
8.0946
8.47513
8.35139
8.09959
7.72399
7.2455
6.69972
6.11376
1
1
1
1
1
1
1
1
1
1
1
1
1
1
0.999997
1.39356
6.70743
8.51963
8.28533
7.99482
7.61041
7.15742
6.66146
6.13808
1
1
1
1
1
1
1
1
1
1
1
1
1
1
0.999999
1.01276
4.15313
7.94077
8.10523
7.83608
7.49166
7.07619
6.62292
6.15431
1
1
1
1
1
1
1
1
1
1
1
1
1
1
1
1
1.62577
6.66419
8.12342
7.75858
7.41572
7.02322
6.60585
6.17997
1
1
1
1
1
1
1
1
1
1
1
1
1
1
1
0.999999
1.03106
4.19363
7.67227
7.60686
7.30792
6.95975
6.58662
6.20177
1
1
1
1
1
1
1
1
1
1
1
1
1
1
1
1
1.00011
1.65818
6.23417
7.61325
7.28017
6.95822
6.60849
6.24658
1
1
1
1
1
1
1
1
1
1
1
1
1
1
1
1
1
1.03337
3.50725
7.11672
7.22762
6.9226
6.59835
6.25653
1
1
1
1
1
1
1
1
1
1
1
1
1
1
1
1
1
1.00022
1.4281
5.41246
7.28279
6.93901
6.62294
6.28709
1
1
1
1
1
1
1
1
1
1
1
1
1
1
1
1
1
1
1.01512
2.5315
6.29735
6.92871
6.61466
6.30144
1
1
1
1
1
1
1
1
1
1
1
1
1
1
1
1
1
1
1.0001
1.16579
4.08579
6.73143
6.65827
6.36541
1
1
1
1
1
1
1
1
1
1
1
1
1
1
1
1
1
1
1
1.00316
1.69073
5.25371
6.64765
6.4116
1
1
1
1
1
1
1
1
1
1
1
1
1
1
1
1
1
1
1
1.00002
1.03778
2.55666
5.83795
6.42754
1
1
1
1
1
1
1
1
1
1
1
1
1
1
1
1
1
1
1
1
1.00042
1.17443
3.59259
6.02033
1
1
1
1
1
1
1
1
1
1
1
1
1
1
1
1
1
1
1
1
1
1.004
1.49727
4.39462
1
1
1
1
1
1
1
1
1
1
1
1
1
1
1
1
1
1
1
1
1
1.00002
1.02234
1.97037
1
1
1
1
1
1
1
1
1
1
1
1
1
1
1
1
1
1
1
1
1
1
1.00023
1.07499
1
1
1
1
1
1
1
1
1
1
1
1
1
1
1
1
1
1
1
1
1
1
1
1.00126
1
1
1
1
1
1
1
1
1
1
1
1
1
1
1
1
1
1
1
1
1
1
1
1.00001
1
1
1
1
1
1
1
1
1
1
1
1
1
1
1
1
1
1
1
1
1
1
1
1
1
1
1
1
1
1
1
1
1
1
1
1
1
1
1
1
1
1
1
1
1
1
1
1
1
1
1
1
1
1
1
1
1
1
1
1
1
1
1
1
1
1
1
1
1
1
1
1
1
1
1
1
1
1
1
1
1
1
1
1
1
1
1
1
1
1
1
1
1
1
1
1
1
1
1
1
1
1
1
1
1
1
1
1
1
1
1
1
1
1
1
1
1
1
1
1
1
1
1
1
1
1
1
1
1
1
1
1
1
1
1
1
1
1
1
1
1
1
1
1
1.58673
0.497148
0.148526
0.140547
0.195904
0.275484
0.357258
0.464932
0.628245
0.805521
0.987552
1.12788
1.15305
1.12732
1.10377
1.13893
1.17949
1.2393
1.30722
1.32227
1.29887
1.25076
1.23448
1.25232
1.28984
1.32663
1.33326
1.31656
1.28673
1.2725
1.27627
1.29916
1.32939
1.33525
1.32541
1.30046
1.29833
1.41234
2.04016
4.4893
6.86486
6.91861
6.51858
6.25128
6.16181
5.95167
5.76273
5.5745
5.43688
5.33979
5.24906
5.14128
5.02461
4.90201
4.79636
4.70704
4.6336
4.56274
4.48206
4.39713
4.30306
4.20132
4.09308
3.98521
3.90391
3.84495
3.79139
3.74861
3.71451
3.66903
3.61388
3.54897
3.44191
3.28832
3.18337
3.13431
3.09761
3.07163
3.06132
3.04098
3.00177
2.95345
2.87076
2.74059
2.65783
2.62284
2.59335
2.5702
2.5617
2.54629
2.51534
2.48123
2.4296
2.33388
2.25507
2.20684
2.75167
1.47039
0.916542
0.6372
0.592265
0.56885
0.519736
0.494162
0.514153
0.571814
0.648804
0.750934
0.881076
0.951029
0.984785
1.03259
1.08739
1.15302
1.2235
1.25793
1.26342
1.25806
1.23945
1.23648
1.25193
1.2794
1.31031
1.31877
1.31315
1.29911
1.29019
1.29117
1.29799
1.30691
1.30533
1.3146
1.40963
1.97577
2.63279
3.40958
5.21693
6.15315
6.20049
6.16113
6.04213
5.83632
5.68329
5.54602
5.42735
5.33275
5.24691
5.14318
5.03167
4.91404
4.79168
4.68168
4.5962
4.52292
4.45889
4.38491
4.30453
4.21957
4.12712
4.02063
3.91273
3.83762
3.78161
3.73044
3.68504
3.64444
3.59866
3.53925
3.45354
3.33438
3.21201
3.14227
3.10399
3.07336
3.04831
3.0242
2.99267
2.94829
2.87746
2.77026
2.67256
2.6274
2.59804
2.57257
2.55347
2.53211
2.50429
2.47234
2.4296
2.35641
2.27485
2.21071
3.6625
2.3935
1.70148
1.22397
0.983538
0.868707
0.776857
0.670061
0.566744
0.557008
0.585154
0.646723
0.738318
0.849496
0.919302
0.951669
1.0011
1.06927
1.13793
1.19078
1.24504
1.27896
1.29118
1.28875
1.27901
1.27631
1.28185
1.29625
1.3115
1.31913
1.32023
1.3071
1.28534
1.27831
1.29739
1.41313
1.92599
2.8483
3.10783
3.06608
3.56072
4.8553
5.89953
6.24383
6.08104
5.923
5.78515
5.61982
5.46264
5.31514
5.20033
5.10182
5.00913
4.91688
4.82045
4.70974
4.5832
4.47212
4.39348
4.32505
4.26069
4.1964
4.13221
4.05907
3.95698
3.84568
3.77193
3.71526
3.66104
3.60744
3.54952
3.48754
3.42589
3.35665
3.26773
3.17021
3.10892
3.0728
3.039
3.00495
2.96476
2.91415
2.85584
2.78866
2.71041
2.64136
2.60271
2.57372
2.548
2.52025
2.48945
2.4536
2.41013
2.35905
2.30532
2.22799
4.22544
3.14874
2.43876
1.88496
1.43495
1.21124
1.12762
1.03472
0.893286
0.752461
0.696197
0.697022
0.71601
0.747478
0.793634
0.82146
0.868233
0.939534
1.00783
1.06082
1.12448
1.17863
1.23074
1.27674
1.28764
1.28348
1.28346
1.29518
1.32005
1.33444
1.33043
1.30908
1.27519
1.28316
1.42529
1.88867
2.79137
3.19962
3.22446
3.12678
3.09308
3.41963
4.44432
5.39591
5.70332
5.89904
5.82615
5.65419
5.48013
5.29708
5.15614
5.06408
4.98692
4.91344
4.8327
4.73947
4.61281
4.46323
4.36049
4.29349
4.23511
4.18166
4.12653
4.06655
3.98632
3.86782
3.7523
3.68481
3.63324
3.57909
3.52013
3.46239
3.41187
3.36308
3.3053
3.22318
3.12411
3.05614
3.01595
2.97666
2.93033
2.87843
2.83131
2.78908
2.74272
2.68113
2.6128
2.56959
2.53935
2.50863
2.47461
2.43398
2.39066
2.35221
2.32043
2.25357
4.69759
3.72031
3.00562
2.49312
2.04065
1.61811
1.39137
1.30815
1.206
1.06948
0.908734
0.799792
0.761615
0.761498
0.780587
0.81844
0.819539
0.821046
0.836405
0.870704
0.940714
1.03938
1.12684
1.19532
1.22873
1.2325
1.23188
1.25155
1.2858
1.32166
1.32443
1.31316
1.31224
1.42966
2.02635
2.72225
3.23843
3.25119
3.20488
3.161
3.1015
3.04604
3.21599
3.88544
4.75497
5.46651
5.61513
5.65508
5.53533
5.34114
5.16943
5.04916
4.96556
4.8982
4.82811
4.74917
4.63889
4.48188
4.34266
4.267
4.21152
4.16493
4.11874
4.06412
3.99815
3.90385
3.77425
3.65316
3.58131
3.5295
3.48158
3.44035
3.40339
3.3656
3.32464
3.27021
3.18145
3.06966
2.98965
2.93559
2.88619
2.84447
2.81271
2.78283
2.7514
2.71159
2.65186
2.5822
2.53
2.49056
2.45145
2.41057
2.37543
2.34864
2.32534
2.2676
5.00291
4.18489
3.45531
2.91464
2.52688
2.14821
1.77166
1.53642
1.44022
1.34632
1.22372
1.06571
0.927699
0.892814
0.889151
0.884269
0.861154
0.835413
0.806467
0.801624
0.816439
0.862178
0.930853
1.01501
1.10534
1.15606
1.18139
1.21125
1.24949
1.29057
1.29354
1.3106
1.44152
2.04152
2.88192
3.18447
3.23562
3.24525
3.20014
3.15576
3.09719
3.01101
2.95331
3.0148
3.39606
4.27145
5.02171
5.4087
5.42981
5.3208
5.1812
5.05023
4.94944
4.87776
4.8113
4.743
4.65088
4.51439
4.35867
4.2468
4.18264
4.1307
4.08572
4.03811
3.97876
3.9065
3.80943
3.67816
3.55805
3.49177
3.44892
3.41245
3.38216
3.35434
3.32006
3.27914
3.21544
3.10273
2.97589
2.90076
2.85903
2.82841
2.80197
2.77992
2.75252
2.72025
2.6754
2.60157
2.52044
2.46344
2.42159
2.39132
2.36932
2.34871
2.32928
2.27663
5.23014
4.52148
3.87492
3.29682
2.85532
2.52444
2.18966
1.89447
1.66316
1.52117
1.43531
1.3327
1.20628
1.06112
0.985771
0.959122
0.921847
0.891128
0.87396
0.850231
0.826475
0.820952
0.827595
0.850434
0.905656
0.980893
1.06735
1.13688
1.17623
1.21255
1.23665
1.41603
1.98466
2.9086
3.17925
3.24788
3.24568
3.24126
3.20223
3.15219
3.08692
2.99603
2.92779
2.8899
2.90111
3.10814
3.71302
4.51203
5.08871
5.15479
5.12853
5.04641
4.95371
4.88057
4.79644
4.71746
4.63122
4.52478
4.4011
4.26753
4.15686
4.08876
4.03532
3.99301
3.94154
3.87973
3.80894
3.7131
3.58057
3.47359
3.42365
3.38613
3.35415
3.32839
3.29709
3.2575
3.20354
3.11262
2.9799
2.888
2.85186
2.82354
2.79821
2.78096
2.7566
2.7242
2.68154
2.60216
2.4994
2.43517
2.40401
2.3821
2.36289
2.34514
2.32802
2.27868
5.38865
4.75911
4.17936
3.62937
3.17292
2.81028
2.49991
2.22725
1.96982
1.73606
1.59899
1.52753
1.44092
1.31621
1.17451
1.08394
1.03844
1.01231
0.992779
0.958233
0.904247
0.852273
0.830169
0.832998
0.840252
0.856174
0.895673
0.952446
1.01811
1.09769
1.28393
1.95488
2.72981
3.20117
3.24562
3.2402
3.22105
3.20178
3.16241
3.11183
3.05124
2.97738
2.91266
2.86732
2.83914
2.81455
2.88643
3.2061
3.93294
4.54685
4.90006
4.92236
4.90748
4.87033
4.78021
4.68349
4.59409
4.50917
4.4172
4.30291
4.16844
4.05643
3.98464
3.92684
3.88228
3.83837
3.78599
3.7266
3.63752
3.50811
3.40259
3.35231
3.3155
3.28673
3.25636
3.2179
3.17317
3.11095
3.01513
2.91417
2.86323
2.8339
2.80779
2.78433
2.75705
2.72501
2.67187
2.58132
2.48037
2.42366
2.39713
2.37664
2.35849
2.3397
2.3226
2.27544
5.51111
4.94512
4.41089
3.91426
3.47277
3.08209
2.75245
2.49309
2.26173
2.02692
1.82056
1.68306
1.58874
1.50296
1.40656
1.30513
1.18796
1.09611
1.06613
1.04192
0.995808
0.946164
0.913916
0.879274
0.852854
0.851563
0.854845
0.867578
0.893002
1.0076
1.6312
2.42767
2.86534
3.00213
3.02984
3.03188
3.06415
3.10381
3.11005
3.05607
3.00782
2.97009
2.92514
2.86785
2.802
2.75335
2.73413
2.73887
2.88312
3.34002
3.99208
4.49771
4.70109
4.75083
4.74073
4.67082
4.58104
4.50072
4.40642
4.30872
4.18778
4.04583
3.941
3.88066
3.83167
3.79446
3.76107
3.71585
3.66005
3.56438
3.42286
3.32619
3.28184
3.24807
3.21761
3.18192
3.14036
3.0962
3.04157
2.96333
2.88423
2.8397
2.80789
2.77603
2.73827
2.68845
2.6281
2.55573
2.48319
2.42654
2.39159
2.37051
2.3532
2.33777
2.32566
2.2785
5.59907
5.08824
4.58958
4.13143
3.72686
3.35223
3.00977
2.72336
2.48612
2.27791
2.09011
1.92347
1.74916
1.61333
1.54875
1.48431
1.38885
1.27666
1.18451
1.13308
1.09176
1.05261
1.02481
0.988431
0.937711
0.87849
0.860944
0.87019
0.968557
1.45243
2.22955
2.46469
2.59327
2.60184
2.63171
2.69106
2.77721
2.84567
2.90471
2.90963
2.90253
2.91836
2.90032
2.84649
2.76571
2.70922
2.67901
2.66604
2.66801
2.68697
2.88398
3.40238
3.93348
4.33707
4.5054
4.53751
4.56168
4.50184
4.41315
4.31069
4.18758
4.0551
3.92586
3.84601
3.79671
3.7589
3.7311
3.69434
3.65021
3.58776
3.47727
3.337
3.25165
3.20905
3.17625
3.15179
3.12244
3.08766
3.04897
2.9921
2.90479
2.83037
2.7915
2.75325
2.70459
2.64898
2.59165
2.54185
2.4983
2.45219
2.40502
2.36849
2.34326
2.32088
2.29868
2.23694
5.67132
5.19801
4.74883
4.33395
3.93675
3.56543
3.24995
2.97153
2.71216
2.4684
2.28752
2.12584
1.96298
1.81633
1.69373
1.58669
1.50701
1.43735
1.35999
1.28313
1.20965
1.13567
1.09396
1.06714
1.0238
0.975053
0.944101
1.02467
1.4665
2.23778
2.54793
2.50826
2.44149
2.39304
2.37
2.36625
2.3804
2.426
2.49059
2.56666
2.64098
2.73304
2.7696
2.75036
2.69528
2.66678
2.64887
2.64135
2.6102
2.58246
2.54625
2.60571
2.83063
3.30031
3.83922
4.17971
4.36342
4.41264
4.40142
4.31858
4.18884
4.06634
3.93788
3.83153
3.7731
3.73189
3.69582
3.65893
3.62094
3.57527
3.50385
3.38883
3.25603
3.17756
3.14067
3.11311
3.09737
3.07847
3.04569
3.00219
2.9286
2.82347
2.73988
2.69095
2.65133
2.60774
2.56836
2.53958
2.5115
2.47548
2.42576
2.37442
2.33821
2.3051
2.26548
2.19702
5.74155
5.29794
4.88552
4.50024
4.11535
3.7553
3.45318
3.17326
2.90954
2.67365
2.47649
2.28606
2.12028
1.99079
1.86987
1.74686
1.62213
1.53295
1.47758
1.41554
1.34967
1.27238
1.19976
1.143
1.10345
1.08474
1.17103
1.65193
2.40323
2.71543
2.65969
2.56033
2.45701
2.40511
2.37164
2.34845
2.31069
2.26941
2.23193
2.23349
2.26052
2.31011
2.38266
2.44413
2.49594
2.53265
2.53709
2.51611
2.51449
2.52012
2.50153
2.45506
2.41623
2.48882
2.77924
3.25523
3.74604
4.06724
4.20932
4.22888
4.17646
4.07492
3.97016
3.86678
3.7693
3.70967
3.66253
3.61356
3.5702
3.53178
3.48489
3.41441
3.31103
3.19235
3.11425
3.07723
3.05339
3.04466
3.0215
2.98532
2.93199
2.83506
2.71513
2.6439
2.60448
2.57643
2.55571
2.53753
2.5168
2.49
2.44724
2.38285
2.31415
2.26008
2.21973
2.16142
5.79535
5.39078
5.00639
4.63254
4.2655
3.93909
3.63449
3.34779
3.08081
2.86639
2.65682
2.46502
2.28439
2.14374
2.01217
1.89547
1.77877
1.67987
1.59567
1.51254
1.44508
1.39004
1.32319
1.25801
1.21533
1.3023
1.83999
2.65773
2.94739
2.8937
2.79015
2.69308
2.60416
2.50881
2.43052
2.36367
2.30335
2.24793
2.19667
2.16837
2.14771
2.13195
2.10784
2.10472
2.12693
2.15908
2.21101
2.26727
2.31527
2.36012
2.3713
2.36821
2.34248
2.31854
2.32797
2.41823
2.71225
3.16879
3.64084
3.98468
4.02033
3.99927
3.98725
3.90143
3.78161
3.69246
3.63395
3.57844
3.5226
3.47391
3.43651
3.39514
3.33444
3.24665
3.14108
3.05532
3.00839
2.97654
2.95698
2.9352
2.89828
2.83536
2.73683
2.63719
2.58859
2.56515
2.54566
2.52849
2.50882
2.48734
2.45648
2.38894
2.2894
2.21546
2.17697
2.14278
5.85797
5.47956
5.11371
4.74673
4.4028
4.0945
3.79586
3.50221
3.25367
3.03457
2.82489
2.62786
2.45138
2.30564
2.15802
2.03008
1.91216
1.82342
1.72515
1.63608
1.5482
1.4722
1.41183
1.37712
1.48542
2.08437
2.97236
3.21618
3.1484
3.04402
2.94027
2.85705
2.77214
2.66612
2.55232
2.45255
2.3692
2.29792
2.24569
2.19895
2.15184
2.10749
2.07064
2.0397
1.99168
1.93043
1.91409
1.93144
1.97096
2.03189
2.12128
2.1796
2.19764
2.18843
2.17663
2.15474
2.17081
2.29401
2.60218
3.11502
3.54254
3.7476
3.8412
3.8398
3.76699
3.67295
3.61111
3.55694
3.50591
3.44488
3.38541
3.34498
3.30399
3.25074
3.17862
3.08137
2.98414
2.92623
2.89328
2.86338
2.83176
2.79705
2.74737
2.68094
2.61297
2.56427
2.53574
2.51558
2.50196
2.48832
2.45892
2.38322
2.25986
2.17802
2.15953
2.13951
5.90103
5.54799
5.19186
4.84094
4.53098
4.23113
3.93346
3.649
3.42146
3.19369
2.98228
2.77461
2.61671
2.45476
2.30732
2.16289
2.04989
1.94858
1.8441
1.75202
1.65754
1.57732
1.5278
1.65786
2.33813
3.33113
3.52033
3.41667
3.29411
3.18594
3.10214
3.01501
2.9184
2.8092
2.68622
2.57168
2.48255
2.40618
2.33783
2.2749
2.21587
2.16059
2.10269
2.03963
1.96748
1.89657
1.86696
1.8507
1.82897
1.82095
1.83687
1.87283
1.90981
1.91277
1.91552
1.94046
1.95211
1.96712
2.03075
2.20824
2.57197
3.00429
3.36645
3.63197
3.63623
3.56977
3.55631
3.54873
3.508
3.44843
3.37215
3.29047
3.23983
3.20181
3.16092
3.10303
3.01854
2.9187
2.84774
2.80785
2.77542
2.74734
2.72248
2.69212
2.64983
2.59738
2.54644
2.50465
2.4679
2.42861
2.38916
2.3343
2.24757
2.17988
2.16169
2.13623
5.95065
5.61859
5.27347
4.9414
4.64909
4.36264
4.06137
3.80459
3.57436
3.34869
3.11966
2.93068
2.76758
2.59654
2.44564
2.29648
2.19068
2.07024
1.96457
1.85983
1.76137
1.71058
1.88401
2.65165
3.69468
3.90809
3.76831
3.5682
3.4298
3.34138
3.25182
3.15861
3.06181
2.95405
2.82566
2.68936
2.58003
2.49988
2.43125
2.3658
2.29904
2.22707
2.1526
2.07677
1.99862
1.93066
1.87584
1.83388
1.79717
1.78202
1.76861
1.74986
1.7239
1.68823
1.67194
1.67558
1.69829
1.73573
1.77878
1.81946
1.89089
2.0867
2.40202
2.82455
3.21059
3.33508
3.38475
3.43941
3.46431
3.44631
3.36499
3.26686
3.19516
3.14356
3.10638
3.0726
3.02435
2.95106
2.86192
2.78725
2.7405
2.70789
2.68463
2.66775
2.64727
2.61202
2.56167
2.50326
2.44296
2.38606
2.32989
2.27397
2.23006
2.1977
2.17376
2.13251
5.98129
5.66569
5.34836
5.04291
4.75421
4.46825
4.1868
3.9505
3.71592
3.47974
3.24442
3.07735
2.90338
2.73863
2.56151
2.43312
2.31513
2.19356
2.07513
1.96128
1.9016
2.13537
3.00596
4.09454
4.2688
4.12024
3.92001
3.7143
3.57933
3.48294
3.38205
3.28267
3.18558
3.08238
2.96071
2.82013
2.69411
2.60285
2.52881
2.46072
2.39364
2.32372
2.24945
2.16673
2.07656
1.99205
1.92484
1.86728
1.83092
1.79974
1.76378
1.72334
1.68511
1.65243
1.61261
1.56236
1.53132
1.53416
1.54883
1.57666
1.59167
1.6146
1.68921
1.85838
2.16845
2.58621
2.91803
3.13384
3.2815
3.32307
3.3128
3.27069
3.18922
3.12101
3.06097
3.01666
2.9839
2.94242
2.88491
2.81488
2.74945
2.6975
2.65435
2.61862
2.59516
2.57451
2.54344
2.49457
2.42825
2.35533
2.28781
2.23913
2.21346
2.19176
2.17008
2.12338
6.0563
5.7466
5.43948
5.14806
4.86868
4.58117
4.30936
4.07365
3.84422
3.60293
3.38662
3.21197
3.03219
2.86101
2.68877
2.57061
2.44067
2.30398
2.1778
2.12512
2.42555
3.484
4.43982
4.68281
4.53982
4.33175
4.12006
3.89073
3.73515
3.61944
3.50739
3.4007
3.29871
3.19563
3.08135
2.94669
2.80728
2.6965
2.61123
2.53627
2.46618
2.39832
2.32959
2.25235
2.15829
2.05438
1.97017
1.91463
1.87538
1.83743
1.79693
1.75827
1.71761
1.66615
1.60447
1.54348
1.4956
1.47278
1.4657
1.45758
1.44372
1.4353
1.43669
1.44791
1.48592
1.62636
1.92016
2.34275
2.70013
2.97515
3.12853
3.14992
3.13608
3.11415
3.06709
2.99037
2.94155
2.9101
2.87316
2.82531
2.766
2.68891
2.61736
2.57512
2.55109
2.53126
2.50616
2.46519
2.40155
2.32341
2.26466
2.23117
2.20725
2.18417
2.16059
2.10918
6.10208
5.80206
5.50949
5.2289
4.95313
4.66922
4.41634
4.18768
3.95702
3.70622
3.51535
3.33902
3.16222
2.97232
2.82082
2.69418
2.54574
2.41088
2.36624
2.74292
3.97491
4.97411
5.05586
4.8854
4.68968
4.50033
4.29225
4.06359
3.8847
3.7524
3.63115
3.51689
3.4085
3.30154
3.18887
3.06211
2.91937
2.78485
2.68478
2.60694
2.53698
2.47052
2.40519
2.33533
2.25096
2.14342
2.02898
1.94944
1.90186
1.86366
1.83141
1.8017
1.76649
1.71977
1.65912
1.57942
1.49483
1.44491
1.42685
1.41642
1.4065
1.39756
1.38124
1.35429
1.32039
1.30936
1.33052
1.43633
1.6968
2.09525
2.47438
2.74747
2.95438
3.00088
2.98383
2.94757
2.91203
2.86697
2.83689
2.80849
2.76159
2.68761
2.61487
2.5554
2.51157
2.48989
2.47636
2.44894
2.38126
2.29929
2.25228
2.22219
2.19388
2.16678
2.14361
2.09566
6.16257
5.85709
5.57956
5.30787
5.03928
4.77288
4.52329
4.29511
4.06389
3.82894
3.648
3.46593
3.28249
3.08401
2.95406
2.80101
2.65059
2.63671
3.1544
4.52029
5.52385
5.53147
5.30364
5.04359
4.83108
4.64225
4.44644
4.23753
4.04157
3.88529
3.75089
3.62637
3.50841
3.39522
3.28332
3.1653
3.03044
2.88222
2.7558
2.66555
2.59343
2.52892
2.467
2.40169
2.3247
2.22789
2.11818
2.02529
1.95712
1.90149
1.85561
1.81558
1.78183
1.75313
1.71414
1.65398
1.57553
1.48257
1.42669
1.4018
1.38533
1.37184
1.3579
1.33987
1.31381
1.27005
1.22948
1.2104
1.22267
1.29858
1.52088
1.85578
2.26265
2.5139
2.73666
2.83569
2.84321
2.83755
2.81232
2.75549
2.69235
2.646
2.60801
2.55812
2.50596
2.47212
2.44361
2.39603
2.32726
2.27133
2.24074
2.21159
2.18157
2.15673
2.13213
2.07219
6.22044
5.9568
5.65597
5.39541
5.1315
4.86919
4.63126
4.40598
4.17114
3.94478
3.76301
3.58532
3.38987
3.21626
3.05118
2.88862
2.93248
3.62056
5.23482
6.04485
5.88369
5.61154
5.38651
5.19532
5.00447
4.81004
4.61817
4.41975
4.20985
4.01832
3.86136
3.72513
3.59872
3.47934
3.36621
3.25335
3.12856
2.98242
2.83863
2.73172
2.65018
2.577
2.50628
2.43575
2.36247
2.28005
2.18574
2.09512
2.02382
1.96561
1.9098
1.85268
1.79696
1.7491
1.714
1.68238
1.63475
1.56304
1.48767
1.42469
1.38611
1.36399
1.3493
1.33854
1.31853
1.2797
1.23573
1.19311
1.16243
1.14956
1.15462
1.20201
1.36965
1.63258
1.97029
2.26209
2.4985
2.69216
2.73321
2.72608
2.68351
2.59517
2.5301
2.5096
2.49916
2.46862
2.42816
2.37459
2.31706
2.26577
2.21805
2.18268
2.16945
2.15741
2.13627
2.06442
6.05894
6.04284
5.76221
5.47918
5.21482
4.96448
4.73922
4.50694
4.2679
4.06034
3.8802
3.69266
3.49208
3.31932
3.13925
3.21983
4.14388
5.85747
6.7437
6.58968
6.15763
5.78661
5.54342
5.36202
5.17339
4.9739
4.77299
4.5679
4.35375
4.14742
3.97073
3.82148
3.68787
3.56338
3.44528
3.32892
3.20507
3.06453
2.91959
2.80227
2.71329
2.63555
2.55991
2.48271
2.40226
2.317
2.22611
2.13696
2.06309
2.00507
1.95167
1.89612
1.83968
1.78516
1.73413
1.68574
1.64244
1.60105
1.54983
1.49388
1.44019
1.38997
1.34884
1.32181
1.30808
1.29514
1.2645
1.21338
1.16474
1.13852
1.11808
1.1076
1.1065
1.1293
1.21407
1.41706
1.7097
2.0357
2.31171
2.55098
2.596
2.58274
2.53559
2.46338
2.39918
2.37907
2.37736
2.36469
2.32857
2.28658
2.24389
2.19598
2.13788
2.08941
2.07412
2.04841
4.90801
5.96517
5.85554
5.58132
5.3014
5.05904
4.8337
4.60757
4.36853
4.17843
3.98625
3.79603
3.60021
3.4125
3.54406
4.72441
6.61531
7.22457
6.94501
6.62819
6.31492
6.02827
5.78007
5.55107
5.32515
5.10323
4.88455
4.66791
4.45539
4.25445
4.07505
3.91979
3.78139
3.65131
3.52435
3.39678
3.26473
3.12639
2.98904
2.86838
2.76971
2.68576
2.60817
2.53145
2.45187
2.36678
2.27473
2.17853
2.08903
2.01794
1.96642
1.92392
1.88007
1.83049
1.77616
1.71881
1.66265
1.61408
1.57383
1.53391
1.48793
1.43769
1.38807
1.34288
1.30395
1.27685
1.26109
1.24045
1.20302
1.15713
1.12029
1.09894
1.08103
1.06639
1.05165
1.05258
1.0925
1.24576
1.50699
1.86402
2.12987
2.39045
2.45358
2.43824
2.38161
2.33234
2.3073
2.29996
2.31848
2.31089
2.2811
2.22639
2.13915
2.07406
2.03617
1.99464
2.49927
5.20723
5.84254
5.69169
5.39911
5.15368
4.93236
4.70359
4.47674
4.28409
4.08745
3.90007
3.7061
3.93785
5.43984
7.30556
7.98615
7.71384
7.16626
6.7514
6.4581
6.21052
5.9602
5.70437
5.45894
5.22405
4.99629
4.77521
4.56364
4.36474
4.18276
4.02003
3.87214
3.73165
3.59312
3.45409
3.31536
3.18059
3.05345
2.93586
2.82836
2.73108
2.64253
2.56063
2.48304
2.40587
2.32394
2.23524
2.14502
2.05995
1.98733
1.93368
1.89281
1.85363
1.80855
1.75529
1.69889
1.64474
1.59119
1.53875
1.49272
1.45333
1.41465
1.37213
1.32862
1.29058
1.25751
1.23438
1.21592
1.18652
1.14899
1.11265
1.08238
1.05746
1.02713
1.0047
0.988611
0.986773
1.0146
1.13895
1.3619
1.70704
1.97548
2.16064
2.29272
2.29175
2.28121
2.28965
2.27605
2.24559
2.20913
2.17639
2.14022
2.07973
2.02326
1.97532
1.17432
3.01787
5.34189
5.7226
5.53514
5.26536
5.02811
4.78973
4.59019
4.37726
4.19224
4.03064
4.38732
6.28259
8.18086
8.36717
8.17387
7.83123
7.42816
7.02427
6.66493
6.35278
6.08008
5.82555
5.57811
5.34057
5.11335
4.89335
4.6785
4.47186
4.28105
4.10959
3.95259
3.8019
3.65205
3.50297
3.35995
3.22836
3.10811
2.99557
2.88805
2.7852
2.68685
2.5919
2.50023
2.41436
2.33701
2.2638
2.18833
2.11183
2.0395
1.97462
1.91475
1.85658
1.80389
1.76165
1.72303
1.6782
1.62741
1.57605
1.52575
1.47575
1.42897
1.38852
1.35265
1.31494
1.27305
1.23533
1.20878
1.19177
1.17364
1.14462
1.10548
1.06433
1.02668
0.996642
0.976191
0.967476
0.962674
0.958389
0.975031
1.05467
1.24616
1.48337
1.75826
1.9428
2.10517
2.21706
2.24183
2.23309
2.18342
2.10483
2.05868
2.04689
2.03007
1.97996
1.00437
1.32321
3.46478
5.35399
5.59174
5.39882
5.12512
4.8913
4.66854
4.47223
4.36854
5.01287
7.17252
9.13687
9.36108
8.77744
8.22759
7.8984
7.6002
7.22621
6.83574
6.4885
6.19401
5.93283
5.68778
5.45232
5.22329
4.99792
4.77482
4.55849
4.35881
4.18029
4.01793
3.86292
3.70968
3.55815
3.41204
3.27607
3.15204
3.03801
2.93027
2.82651
2.72653
2.62993
2.53557
2.44299
2.35362
2.27065
2.19789
2.13372
2.07201
2.00909
1.9473
1.89057
1.83703
1.78145
1.72301
1.66787
1.62297
1.58589
1.54819
1.50491
1.46082
1.41846
1.37466
1.33175
1.29203
1.2555
1.22311
1.1939
1.17174
1.15424
1.13029
1.08674
1.03447
0.999365
0.980842
0.966966
0.95147
0.938547
0.930395
0.922093
0.924416
0.958753
1.07725
1.28466
1.53649
1.77799
1.99895
2.13256
2.13488
2.10126
2.02676
1.9645
1.9469
1.94653
1.00003
1.01175
1.50959
3.79354
5.33375
5.46106
5.26943
4.98548
4.75116
4.73592
5.72065
8.35996
9.95119
9.7986
9.52147
9.04003
8.49522
8.09102
7.7376
7.36703
6.99186
6.63653
6.32126
6.04528
5.79373
5.555
5.32035
5.08481
4.85055
4.62475
4.41724
4.2323
4.06586
3.91038
3.75929
3.61001
3.4629
3.32149
3.19077
3.07249
2.96457
2.8621
2.76229
2.6637
2.56478
2.46697
2.37517
2.29246
2.21783
2.14879
2.08394
2.02315
1.96493
1.90716
1.84778
1.79115
1.74136
1.69292
1.64722
1.60332
1.55924
1.51171
1.46242
1.42023
1.38529
1.35034
1.31094
1.27262
1.24309
1.21715
1.19196
1.16394
1.13162
1.09495
1.05777
1.02339
0.996287
0.975656
0.958538
0.94258
0.927585
0.911711
0.899395
0.886538
0.86927
0.880375
0.95387
1.13243
1.38527
1.64251
1.83979
1.97819
1.98721
1.94729
1.89306
1.87317
1
1.0001
1.02572
1.70612
4.01108
5.27924
5.32721
5.07247
5.18715
6.68945
9.46956
10.944
10.8767
10.0568
9.57531
9.18912
8.72193
8.26939
7.85123
7.45814
7.08561
6.74274
6.43132
6.14569
5.87843
5.6247
5.37966
5.13532
4.89545
4.67214
4.46715
4.27861
4.1058
3.9475
3.79986
3.65658
3.51175
3.36476
3.22172
3.09047
2.97744
2.88029
2.79015
2.69975
2.60416
2.50201
2.39807
2.30385
2.22836
2.16752
2.11001
2.05113
1.99314
1.93564
1.86873
1.78965
1.74397
1.72269
1.69203
1.64502
1.5882
1.532
1.48523
1.44366
1.39644
1.34117
1.31648
1.3037
1.28289
1.25688
1.22831
1.19941
1.17216
1.14472
1.11118
1.06918
1.03049
1.00223
0.979447
0.957103
0.936061
0.916346
0.90102
0.885203
0.857831
0.831124
0.811945
0.822146
0.873284
1.01367
1.23329
1.48497
1.67186
1.83161
1.85126
1.82296
1
1
1.0003
1.04568
1.88437
4.28477
4.91996
5.48379
7.83462
10.7183
11.4832
11.5565
11.0605
10.3936
9.8229
9.40519
8.96914
8.4711
8.00882
7.59766
7.21705
6.86549
6.54678
6.25553
5.98436
5.72505
5.47022
5.21514
4.96035
4.72282
4.51625
4.33053
4.15707
3.99272
3.83588
3.68544
3.54005
3.39799
3.25964
3.12867
3.0108
2.90817
2.81257
2.71781
2.62143
2.52261
2.42383
2.33111
2.25238
2.18369
2.1171
2.04932
1.98735
1.92935
1.86762
1.80946
1.76482
1.71777
1.66843
1.61865
1.56666
1.52355
1.49019
1.45341
1.40589
1.35939
1.32091
1.28517
1.25695
1.23222
1.2082
1.18431
1.15975
1.13047
1.08996
1.04183
1.00781
0.987021
0.970255
0.954082
0.938669
0.923228
0.905166
0.877883
0.844771
0.817651
0.800154
0.793313
0.787741
0.791162
0.820884
0.935192
1.10632
1.33417
1.51923
1.67681
1
1
1
1.00062
1.07478
2.10729
3.69697
8.48534
12.0902
12.62
12.1212
11.7042
11.2387
10.6096
9.9658
9.51106
9.04669
8.5783
8.10974
7.65899
7.24998
6.8971
6.58853
6.30458
6.03072
5.75477
5.47837
5.23043
5.02518
4.83003
4.62536
4.42515
4.23725
4.05961
3.88861
3.72247
3.56247
3.41262
3.28035
3.17609
3.09002
2.99807
2.89938
2.79842
2.69269
2.57959
2.46309
2.35943
2.27212
2.20069
2.1389
2.07447
2.00913
1.94256
1.87559
1.81633
1.76419
1.7135
1.66463
1.61726
1.57724
1.54531
1.50904
1.46127
1.40742
1.35857
1.31619
1.28094
1.25304
1.22949
1.20797
1.18691
1.16384
1.13363
1.08921
1.03708
1.00428
0.987813
0.97589
0.964747
0.952739
0.936993
0.914414
0.881357
0.844148
0.815186
0.798261
0.788069
0.780153
0.777436
0.775138
0.775813
0.791528
0.853597
0.959276
1.22665
1
1
1
1
1.00158
1.09428
4.11372
12.6372
13.6752
12.8012
12.1204
11.5904
11.1609
10.6153
10.0445
9.56648
9.09005
8.64181
8.19509
7.74132
7.32049
6.95682
6.63922
6.34724
6.06622
5.79006
5.52321
5.26776
5.01731
4.78532
4.58284
4.4009
4.2288
4.06022
3.89188
3.72448
3.5644
3.41844
3.2891
3.17362
3.06346
2.95716
2.85289
2.74791
2.64298
2.54137
2.4492
2.36516
2.28544
2.20668
2.13787
2.09677
2.04889
1.98291
1.91686
1.85534
1.79755
1.74723
1.70491
1.66881
1.63548
1.59797
1.55115
1.49446
1.43406
1.37956
1.33726
1.30624
1.28229
1.2616
1.24149
1.22006
1.19447
1.15837
1.10472
1.05349
1.03251
1.02155
1.01069
0.998463
0.983905
0.965545
0.939252
0.900535
0.859773
0.835257
0.822553
0.812238
0.802237
0.792087
0.782226
0.769592
0.757364
0.739458
0.735592
0.809742
1
1
1
1
1.00001
1.00201
5.21657
13.4413
13.6707
13.0913
12.5986
12.0222
11.5165
10.9302
10.2754
9.70888
9.16091
8.6877
8.23543
7.78498
7.36313
6.99373
6.66904
6.37253
6.09253
5.82253
5.55286
5.2786
5.01294
4.77774
4.576
4.39732
4.23019
4.06627
3.90024
3.7304
3.56333
3.41302
3.28551
3.17061
3.06126
2.9557
2.84927
2.739
2.62922
2.52858
2.44021
2.362
2.2919
2.22706
2.16364
2.08725
2.00838
1.94158
1.87889
1.81495
1.75199
1.69906
1.65977
1.62754
1.59521
1.55835
1.51366
1.45922
1.39824
1.34114
1.29785
1.26859
1.24756
1.22886
1.20944
1.18826
1.16232
1.12468
1.06851
1.02291
1.00735
0.997208
0.986372
0.97412
0.959159
0.941314
0.915266
0.875879
0.836785
0.815689
0.803941
0.793711
0.783427
0.772079
0.760944
0.7479
0.732749
0.713919
0.68243
0.666455
)
;

boundaryField
{
    inlet
    {
        type            fixedValue;
        value           uniform 1;
    }
    outlet
    {
        type            zeroGradient;
    }
    bottom
    {
        type            symmetryPlane;
    }
    top
    {
        type            symmetryPlane;
    }
    obstacle
    {
        type            zeroGradient;
    }
    defaultFaces
    {
        type            empty;
    }
}


// ************************************************************************* //
