/*--------------------------------*- C++ -*----------------------------------*\
  =========                 |
  \\      /  F ield         | OpenFOAM: The Open Source CFD Toolbox
   \\    /   O peration     | Website:  https://openfoam.org
    \\  /    A nd           | Version:  7
     \\/     M anipulation  |
\*---------------------------------------------------------------------------*/
FoamFile
{
    version     2.0;
    format      ascii;
    class       volScalarField;
    location    "2.3";
    object      rho;
}
// * * * * * * * * * * * * * * * * * * * * * * * * * * * * * * * * * * * * * //

dimensions      [1 -3 0 0 0 0 0];

internalField   nonuniform List<scalar> 
4032
(
1.40001
1.40001
1.40001
1.40001
1.40001
1.40001
1.40001
1.40001
1.40001
1.40001
1.40001
1.40001
3.67686
5.43968
5.51623
5.5825
5.64521
5.69905
5.74977
5.80009
5.8473
5.88309
5.90687
5.92508
1.40001
1.40001
1.40001
1.40001
1.40001
1.40001
1.40001
1.40001
1.40001
1.40001
1.40001
1.40001
3.6034
5.41288
5.50626
5.57232
5.6348
5.68721
5.73588
5.78356
5.82797
5.86117
5.88278
5.9001
1.40001
1.40001
1.40001
1.40001
1.40001
1.40001
1.40001
1.40001
1.40001
1.40001
1.40001
1.40001
3.45592
5.38022
5.48822
5.5531
5.61557
5.6669
5.71391
5.75921
5.80058
5.83058
5.84836
5.86464
1.40001
1.40001
1.40001
1.40001
1.40001
1.40001
1.40001
1.40001
1.40001
1.40001
1.40001
1.40001
3.24078
5.3298
5.46563
5.5274
5.58891
5.63834
5.68314
5.72594
5.76409
5.78901
5.79906
5.80728
1.40001
1.40001
1.40001
1.40001
1.40001
1.40001
1.40001
1.40001
1.40001
1.40001
1.40001
1.40001
2.95727
5.2468
5.4411
5.49645
5.55302
5.59618
5.63366
5.66821
5.69831
5.71849
5.72601
5.74193
1.40001
1.40001
1.40001
1.40001
1.40001
1.40001
1.40001
1.40001
1.40001
1.40001
1.40001
1.40001
2.62208
5.12091
5.432
5.47501
5.52178
5.55315
5.5781
5.60274
5.6254
5.6404
5.63961
5.62563
1.40001
1.40001
1.40001
1.40001
1.40001
1.40001
1.40001
1.40001
1.40001
1.40001
1.40001
1.40001
2.23037
4.93096
5.44578
5.4665
5.49776
5.51358
5.52103
5.52584
5.52355
5.50175
5.47039
5.45364
1.40001
1.40001
1.40001
1.40001
1.40001
1.40001
1.40001
1.40001
1.40001
1.40001
1.40001
1.40001
1.81969
4.67693
5.45982
5.43988
5.4689
5.47367
5.45953
5.44063
5.41092
5.3639
5.29311
5.25491
1.40001
1.40001
1.40001
1.40001
1.40001
1.40001
1.40001
1.40001
1.40001
1.40001
1.40001
1.40001
1.45578
4.22286
5.43116
5.40604
5.41853
5.41235
5.3808
5.34009
5.27133
5.15318
4.83298
3.9788
1.40001
1.40001
1.40001
1.40001
1.40001
1.40001
1.40001
1.40001
1.40001
1.40001
1.40001
1.40001
1.40043
3.548
5.19328
5.28307
5.32728
5.32723
5.28795
5.22731
5.11671
4.91739
4.57748
3.68292
1.40001
1.40001
1.40001
1.40001
1.40001
1.40001
1.40001
1.40001
1.40001
1.40001
1.40001
1.40001
1.4
2.81478
4.99914
5.23912
5.26047
5.2529
5.20467
5.12026
4.97664
4.73076
4.37119
3.55121
1.40001
1.40001
1.40001
1.40001
1.40001
1.40001
1.40001
1.40001
1.40001
1.40001
1.40001
1.40001
1.4
2.0607
4.75431
5.22905
5.20958
5.17914
5.11635
5.01346
4.84732
4.59848
4.19941
3.53398
1.40001
1.40001
1.40001
1.40001
1.40001
1.40001
1.40001
1.40001
1.40001
1.40001
1.40001
1.40001
1.4
1.50088
4.11636
5.17777
5.14582
5.09931
5.02174
4.90895
4.73593
4.49442
4.09525
3.57679
1.40001
1.40001
1.40001
1.40001
1.40001
1.40001
1.40001
1.40001
1.40001
1.40001
1.40001
1.40001
1.40001
1.40094
3.18378
5.0341
5.07945
5.02772
4.93942
4.81809
4.64753
4.40663
4.04288
3.62312
1.40001
1.40001
1.40001
1.40001
1.40001
1.40001
1.40001
1.40001
1.40001
1.40001
1.40001
1.40001
1.40001
1.39999
2.10911
4.81749
5.09263
4.98364
4.88108
4.74628
4.58273
4.33912
4.02527
3.67758
1.40001
1.40001
1.40001
1.40001
1.40001
1.40001
1.40001
1.40001
1.40001
1.40001
1.40001
1.40001
1.40001
1.4
1.48653
4.02891
5.00023
4.90053
4.82077
4.69015
4.5235
4.29521
4.02207
3.72001
1.40001
1.40001
1.40001
1.40001
1.40001
1.40001
1.40001
1.40001
1.40001
1.40001
1.40001
1.40001
1.40001
1.4
1.40057
2.78845
4.79347
4.86783
4.80372
4.67922
4.50146
4.28081
4.03065
3.76076
1.40001
1.40001
1.40001
1.40001
1.40001
1.40001
1.40001
1.40001
1.40001
1.40001
1.40001
1.40001
1.40001
1.40001
1.4
1.69247
4.30914
4.9289
4.81265
4.66854
4.48507
4.27282
4.04103
3.79529
1.40001
1.40001
1.40001
1.40001
1.40001
1.40001
1.40001
1.40001
1.40001
1.40001
1.40001
1.40001
1.40001
1.40001
1.4
1.41083
3.1455
4.76302
4.75855
4.63148
4.46577
4.26829
4.05317
3.82957
1.40001
1.40001
1.40001
1.40001
1.40001
1.40001
1.40001
1.40001
1.40001
1.40001
1.40001
1.40001
1.40001
1.40001
1.4
1.4
1.84448
4.34599
4.81451
4.64102
4.47024
4.27792
4.07552
3.86925
1.40001
1.40001
1.40001
1.40001
1.40001
1.40001
1.40001
1.40001
1.40001
1.40001
1.40001
1.40001
1.40001
1.40001
1.40001
1.4
1.42625
3.19988
4.68184
4.62124
4.46493
4.28732
4.10011
3.90894
1.40001
1.40001
1.40001
1.40001
1.40001
1.40001
1.40001
1.40001
1.40001
1.40001
1.40001
1.40001
1.40001
1.40001
1.40001
1.4
1.4001
1.86951
4.16735
4.66388
4.49813
4.32832
4.14692
3.96204
1.40001
1.40001
1.40001
1.40001
1.40001
1.40001
1.40001
1.40001
1.40001
1.40001
1.40001
1.40001
1.40001
1.40001
1.40001
1.40001
1.40001
1.42838
2.89221
4.53943
4.51108
4.35381
4.18277
4.00325
1.40001
1.40001
1.40001
1.40001
1.40001
1.40001
1.40001
1.40001
1.40001
1.40001
1.40001
1.40001
1.40001
1.40001
1.40001
1.40001
1.40001
1.40021
1.72254
3.84009
4.58672
4.41132
4.23991
4.05925
1.40001
1.40001
1.40001
1.40001
1.40001
1.40001
1.40001
1.40001
1.40001
1.40001
1.40001
1.40001
1.40001
1.40001
1.40001
1.40001
1.40001
1.40001
1.41322
2.40525
4.26698
4.44577
4.28403
4.11294
1.40001
1.40001
1.40001
1.40001
1.40001
1.40001
1.40001
1.40001
1.40001
1.40001
1.40001
1.40001
1.40001
1.40001
1.40001
1.40001
1.40001
1.40001
1.40011
1.53516
3.23362
4.4136
4.35288
4.18949
1.40001
1.40001
1.40001
1.40001
1.40001
1.40001
1.40001
1.40001
1.40001
1.40001
1.40001
1.40001
1.40001
1.40001
1.40001
1.40001
1.40001
1.40001
1.40001
1.40289
1.90393
3.81831
4.39116
4.26131
1.40001
1.40001
1.40001
1.40001
1.40001
1.40001
1.40001
1.40001
1.40001
1.40001
1.40001
1.40001
1.40001
1.40001
1.40001
1.40001
1.40001
1.40001
1.40001
1.40002
1.43283
2.43822
4.11468
4.30713
1.40001
1.40001
1.40001
1.40001
1.40001
1.40001
1.40001
1.40001
1.40001
1.40001
1.40001
1.40001
1.40001
1.40001
1.40001
1.40001
1.40001
1.40001
1.40001
1.40001
1.40041
1.54329
3.01631
4.19903
1.40001
1.40001
1.40001
1.40001
1.40001
1.40001
1.40001
1.40001
1.40001
1.40001
1.40001
1.40001
1.40001
1.40001
1.40001
1.40001
1.40001
1.40001
1.40001
1.40001
1.40001
1.40371
1.77802
3.4589
1.40001
1.40001
1.40001
1.40001
1.40001
1.40001
1.40001
1.40001
1.40001
1.40001
1.40001
1.40001
1.40001
1.40001
1.40001
1.40001
1.40001
1.40001
1.40001
1.40001
1.40001
1.40003
1.41989
2.09816
1.40001
1.40001
1.40001
1.40001
1.40001
1.40001
1.40001
1.40001
1.40001
1.40001
1.40001
1.40001
1.40001
1.40001
1.40001
1.40001
1.40001
1.40001
1.40001
1.40001
1.40001
1.40001
1.40023
1.46464
1.40001
1.40001
1.40001
1.40001
1.40001
1.40001
1.40001
1.40001
1.40001
1.40001
1.40001
1.40001
1.40001
1.40001
1.40001
1.40001
1.40001
1.40001
1.40001
1.40001
1.40001
1.40001
1.40001
1.40121
1.40001
1.40001
1.40001
1.40001
1.40001
1.40001
1.40001
1.40001
1.40001
1.40001
1.40001
1.40001
1.40001
1.40001
1.40001
1.40001
1.40001
1.40001
1.40001
1.40001
1.40001
1.40001
1.40001
1.40001
1.40001
1.40001
1.40001
1.40001
1.40001
1.40001
1.40001
1.40001
1.40001
1.40001
1.40001
1.40001
1.40001
1.40001
1.40001
1.40001
1.40001
1.40001
1.40001
1.40001
1.40001
1.40001
1.40001
1.40001
1.40001
1.40001
1.40001
1.40001
1.40001
1.40001
1.40001
1.40001
1.40001
1.40001
1.40001
1.40001
1.40001
1.40001
1.40001
1.40001
1.40001
1.40001
1.40001
1.40001
1.40001
1.40001
1.40001
1.40001
1.40001
1.40001
1.40001
1.40001
1.40001
1.40001
1.40001
1.40001
1.40001
1.40001
1.40001
1.40001
1.40001
1.40001
1.40001
1.40001
1.40001
1.40001
1.40001
1.40001
1.40001
1.40001
1.40001
1.40001
1.40001
1.40001
1.40001
1.40001
1.40001
1.40001
1.40001
1.40001
1.40001
1.40001
1.40001
1.40001
1.40001
1.40001
1.40001
1.40001
1.40001
1.40001
1.40001
1.40001
1.40001
1.40001
1.40001
1.40001
1.40001
1.40001
1.40001
1.40001
1.40001
1.40001
1.40001
1.40001
1.40001
1.40001
1.40001
1.40001
1.40001
1.40001
1.40001
1.40001
1.40001
1.40001
1.40001
1.40001
1.40001
1.40001
1.40001
1.40001
1.40001
1.40001
1.40001
1.40001
1.40001
1.40001
1.40001
1.40001
1.40001
1.40001
1.40001
1.40001
1.40001
1.40001
1.40001
1.40001
1.40001
1.40001
1.40001
1.40001
1.40001
1.40001
1.40001
1.40001
1.2979
0.566603
0.214089
0.191836
0.23126
0.304417
0.379174
0.467748
0.578965
0.683693
0.807112
0.918139
0.946137
0.937257
0.918996
0.931977
0.954328
0.994259
1.04159
1.0581
1.05514
1.02969
1.01686
1.02283
1.04348
1.07048
1.07956
1.07817
1.06451
1.05466
1.0557
1.06792
1.0874
1.09248
1.08952
1.07763
1.07627
1.13957
1.4719
2.55704
3.45901
3.51663
3.39104
3.29561
3.27288
3.20827
3.15116
3.08618
3.03356
2.99546
2.96144
2.92209
2.87848
2.82967
2.78536
2.74665
2.71458
2.68447
2.65108
2.61554
2.57472
2.52905
2.47963
2.4304
2.39358
2.36715
2.34319
2.32348
2.30694
2.28513
2.25954
2.23079
2.18442
2.117
2.07071
2.04875
2.0311
2.01739
2.01095
2.00005
1.98156
1.95992
1.92228
1.8609
1.82164
1.8054
1.79189
1.78182
1.77919
1.77328
1.75934
1.74322
1.71757
1.66853
1.62775
1.60436
1.97722
1.24871
0.857451
0.642791
0.614364
0.608856
0.575425
0.544531
0.552509
0.588649
0.647337
0.727842
0.824834
0.870316
0.885349
0.908131
0.939517
0.980885
1.02804
1.0561
1.06501
1.06352
1.0483
1.0409
1.04608
1.0654
1.09039
1.09992
1.09883
1.08895
1.08119
1.08033
1.08481
1.09247
1.09426
1.09998
1.15521
1.45676
1.80473
2.18474
2.93911
3.31629
3.32585
3.3152
3.27583
3.20384
3.15331
3.10427
3.05697
3.01836
2.98488
2.94566
2.9028
2.85501
2.80273
2.75445
2.71678
2.68505
2.65764
2.62552
2.58954
2.55048
2.5076
2.45868
2.40971
2.3757
2.35014
2.3263
2.30442
2.28444
2.2625
2.23541
2.19782
2.14585
2.09136
2.05937
2.0406
2.02454
2.01092
1.99818
1.98292
1.96271
1.93043
1.88023
1.83358
1.81225
1.79869
1.78731
1.7793
1.77023
1.75765
1.74239
1.72099
1.68357
1.64136
1.60943
2.49516
1.81577
1.40105
1.09512
0.937897
0.86324
0.797099
0.711857
0.631193
0.626932
0.650941
0.700351
0.773193
0.855425
0.901256
0.920559
0.951851
0.995874
1.04047
1.07472
1.11085
1.13104
1.13335
1.12689
1.11659
1.11481
1.11973
1.13086
1.14066
1.14316
1.14176
1.13107
1.11643
1.11414
1.1249
1.19479
1.487
1.96398
2.11957
2.11084
2.34717
2.91844
3.34295
3.46441
3.39342
3.3257
3.27129
3.20411
3.1363
3.07254
3.0245
2.98479
2.9472
2.90798
2.86489
2.81471
2.75808
2.70858
2.67279
2.64076
2.60969
2.57817
2.54676
2.51183
2.46456
2.41352
2.37894
2.35159
2.32485
2.29787
2.26901
2.23913
2.21073
2.18014
2.14023
2.09438
2.06376
2.04433
2.02595
2.00782
1.98759
1.96345
1.93636
1.90507
1.86766
1.83411
1.81563
1.80207
1.79041
1.77769
1.76304
1.74522
1.72289
1.69643
1.66833
1.62825
2.80583
2.25617
1.86397
1.54023
1.26472
1.12068
1.0642
1.00102
0.901563
0.79947
0.757993
0.759284
0.774758
0.799328
0.834151
0.855218
0.891412
0.944755
0.993495
1.03031
1.07336
1.10795
1.1407
1.16925
1.17309
1.16851
1.16693
1.17273
1.18712
1.19592
1.19299
1.17798
1.154
1.15744
1.24329
1.51408
1.9997
2.21007
2.23395
2.18869
2.17871
2.33781
2.8103
3.21705
3.33399
3.40223
3.36948
3.29339
3.21542
3.13346
3.07194
3.03297
3.00039
2.96832
2.93177
2.88895
2.83124
2.76313
2.71471
2.68159
2.65186
2.62418
2.59606
2.56657
2.52877
2.47382
2.41954
2.38626
2.35964
2.33132
2.30065
2.27125
2.2463
2.22299
2.19565
2.15569
2.10585
2.06994
2.0476
2.02608
2.00184
1.97594
1.95322
1.93308
1.91083
1.88059
1.84669
1.82552
1.81093
1.79595
1.7789
1.75788
1.73487
1.71391
1.69639
1.65979
3.04412
2.5686
2.1974
1.91568
1.65458
1.3989
1.25626
1.20171
1.13306
1.0389
0.924672
0.847508
0.819231
0.818821
0.833061
0.862672
0.864355
0.866377
0.879087
0.906221
0.958572
1.03005
1.09229
1.13959
1.16148
1.16256
1.16086
1.17195
1.19216
1.21493
1.21702
1.20997
1.20735
1.27896
1.62264
1.9998
2.26394
2.27101
2.24811
2.22558
2.19623
2.16992
2.25393
2.5721
2.96632
3.26945
3.33157
3.34076
3.28719
3.20034
3.1247
3.07185
3.03605
3.00726
2.97658
2.94148
2.89179
2.81998
2.75454
2.71676
2.6881
2.66367
2.63992
2.61322
2.58244
2.53905
2.47862
2.42057
2.38413
2.35659
2.33066
2.30801
2.28796
2.26817
2.24725
2.21942
2.1737
2.11566
2.07291
2.04334
2.01671
1.99476
1.97863
1.964
1.94885
1.92942
1.89952
1.86425
1.83769
1.8174
1.7968
1.77459
1.75478
1.73897
1.72506
1.69115
3.19847
2.80905
2.44504
2.16118
1.94771
1.73088
1.50649
1.3609
1.29899
1.23721
1.15485
1.04611
0.948952
0.924612
0.9223
0.919326
0.902583
0.883611
0.861687
0.858014
0.869886
0.90561
0.957478
1.01919
1.08414
1.12005
1.1377
1.1581
1.1835
1.20977
1.21157
1.22239
1.30524
1.65633
2.09665
2.25098
2.27276
2.27577
2.25178
2.22812
2.19894
2.15618
2.12798
2.15873
2.34614
2.75714
3.09404
3.26296
3.26902
3.22116
3.15829
3.09971
3.05596
3.02512
2.9967
2.96744
2.92702
2.86517
2.79291
2.73943
2.70717
2.68062
2.65806
2.63542
2.60857
2.57636
2.53218
2.47045
2.41189
2.37731
2.35378
2.33322
2.31578
2.29993
2.28131
2.25953
2.22598
2.16725
2.1007
2.05985
2.03659
2.01982
2.00608
1.99532
1.98222
1.96659
1.9442
1.90618
1.8637
1.83334
1.81032
1.79275
1.77914
1.76592
1.75345
1.72066
3.31746
2.98143
2.6648
2.37057
2.13623
1.95401
1.76371
1.5893
1.44794
1.35857
1.30278
1.23509
1.15011
1.05045
0.997956
0.978847
0.951608
0.92927
0.916334
0.89879
0.881583
0.877437
0.882821
0.900722
0.9425
0.997796
1.05999
1.10941
1.13754
1.16321
1.17927
1.29312
1.62799
2.11907
2.24765
2.282
2.27796
2.27533
2.2549
2.2298
2.19886
2.15529
2.12176
2.10397
2.11122
2.21778
2.51074
2.88259
3.14333
3.17546
3.15883
3.12
3.07824
3.04609
3.00879
2.97452
2.93702
2.8894
2.83279
2.77064
2.71796
2.68463
2.65859
2.63885
2.61584
2.58867
2.55743
2.51332
2.44952
2.39601
2.3691
2.34798
2.32956
2.31443
2.29689
2.27552
2.24694
2.19922
2.12945
2.08014
2.05993
2.04442
2.03121
2.02289
2.01136
1.99565
1.97418
1.93284
1.87817
1.84313
1.82521
1.8117
1.79907
1.78682
1.77517
1.74311
3.40596
3.1068
2.82412
2.54827
2.31161
2.11741
1.94613
1.79076
1.63965
1.49842
1.41313
1.36748
1.31147
1.22926
1.13368
1.07128
1.0395
1.02118
1.00744
0.982865
0.942962
0.90354
0.887332
0.88963
0.895261
0.907675
0.937326
0.978952
1.02675
1.08344
1.2082
1.60341
2.02052
2.26037
2.27839
2.27748
2.26991
2.26214
2.24337
2.2194
2.19142
2.15715
2.12626
2.10476
2.09274
2.08446
2.12311
2.28676
2.64185
2.92992
3.0864
3.09468
3.08429
3.06471
3.02155
2.97746
2.93737
2.89977
2.85849
2.80591
2.74328
2.6908
2.6569
2.62968
2.60928
2.58978
2.56653
2.53954
2.49702
2.43336
2.3796
2.35202
2.33113
2.31448
2.2973
2.27642
2.2525
2.21939
2.16862
2.11514
2.08778
2.07204
2.05839
2.04664
2.03322
2.01731
1.99002
1.94215
1.88769
1.85629
1.84059
1.82755
1.81519
1.80204
1.79001
1.7583
3.47991
3.20964
2.94883
2.70065
2.4744
2.26909
2.09107
1.94651
1.81445
1.67739
1.55381
1.46936
1.41013
1.35518
1.29237
1.22505
1.14609
1.08326
1.06232
1.04504
1.01162
0.975225
0.951581
0.925984
0.906577
0.905764
0.908379
0.918183
0.937053
1.01775
1.41095
1.85583
2.08703
2.16035
2.17473
2.18021
2.2027
2.2285
2.23356
2.20859
2.1865
2.16887
2.14847
2.12213
2.09089
2.06807
2.06106
2.06905
2.14724
2.3813
2.70013
2.93637
3.03125
3.04391
3.03475
2.99785
2.95378
2.91782
2.87519
2.83047
2.77431
2.70802
2.65923
2.63105
2.60801
2.59068
2.57512
2.55358
2.52668
2.4793
2.40793
2.35775
2.33314
2.31396
2.29669
2.27703
2.25459
2.23091
2.20181
2.16035
2.11852
2.09494
2.07826
2.06184
2.04243
2.01648
1.98447
1.94521
1.90529
1.87361
1.85302
1.83933
1.82717
1.81558
1.80617
1.77392
3.54038
3.29478
3.05066
2.82146
2.61452
2.41915
2.23656
2.07983
1.9473
1.8286
1.71872
1.61896
1.51276
1.42856
1.38764
1.34606
1.28355
1.20869
1.14632
1.11091
1.08218
1.05458
1.03475
1.00863
0.97148
0.926839
0.914743
0.92173
0.991579
1.30478
1.75245
1.87992
1.95003
1.95918
1.97977
2.01748
2.06835
2.10935
2.14553
2.15218
2.15232
2.16284
2.15529
2.13064
2.09186
2.06394
2.04954
2.04541
2.05068
2.06665
2.1739
2.43924
2.70419
2.89546
2.97072
2.97269
2.97634
2.94709
2.90561
2.85831
2.80029
2.73831
2.67817
2.64095
2.61742
2.59893
2.58481
2.56578
2.54284
2.51073
2.45411
2.38207
2.33727
2.31362
2.29516
2.2814
2.2654
2.24663
2.22589
2.19578
2.1495
2.10991
2.08912
2.06894
2.04319
2.01328
1.98164
1.95362
1.92876
1.90217
1.87461
1.85224
1.83554
1.81996
1.8049
1.76539
3.59715
3.36753
3.14564
2.93702
2.73416
2.54114
2.37339
2.22254
2.07954
1.94263
1.83827
1.74341
1.64643
1.55735
1.48152
1.41411
1.36326
1.31804
1.2669
1.21534
1.16566
1.11501
1.08588
1.06689
1.03582
1.00034
0.977896
1.03254
1.31116
1.75705
1.93177
1.91106
1.8768
1.85484
1.84882
1.85452
1.86558
1.89536
1.93607
1.98334
2.02766
2.08087
2.10624
2.09777
2.07149
2.05885
2.05246
2.05147
2.03745
2.02524
2.01124
2.04598
2.16915
2.41633
2.68791
2.84779
2.92923
2.94211
2.9354
2.89434
2.83155
2.77451
2.7143
2.6636
2.63527
2.61471
2.59588
2.57558
2.55394
2.52834
2.49005
2.42982
2.36073
2.31927
2.29891
2.28355
2.27475
2.26449
2.24708
2.22391
2.18444
2.12798
2.08288
2.05593
2.03381
2.00916
1.98648
1.96942
1.95242
1.93073
1.9012
1.87045
1.84781
1.82655
1.80158
1.75851
3.65574
3.43789
3.23292
3.03821
2.84123
2.65382
2.49321
2.34202
2.19727
2.06551
1.9532
1.84314
1.74566
1.66787
1.594
1.51794
1.43991
1.38322
1.34718
1.30641
1.2627
1.21079
1.16142
1.12238
1.09504
1.08178
1.1385
1.43228
1.85549
2.02895
2.0012
1.95023
1.8965
1.87417
1.86126
1.85367
1.83788
1.82034
1.8035
1.80941
1.82871
1.86165
1.90687
1.94501
1.97673
1.99945
2.00605
1.99914
2.00128
2.00723
2.00054
1.97823
1.96147
2.0038
2.16475
2.41769
2.66723
2.82413
2.88641
2.89084
2.86332
2.81156
2.76141
2.7123
2.66445
2.63451
2.61007
2.58329
2.55792
2.53446
2.50705
2.4687
2.41393
2.35153
2.31005
2.28971
2.27633
2.27152
2.25919
2.23972
2.21087
2.15783
2.09178
2.05162
2.02861
2.01185
1.99908
1.98736
1.9738
1.95654
1.93023
1.89181
1.85076
1.81756
1.79183
1.75469
3.70798
3.5069
3.31423
3.1247
2.93588
2.76493
2.60324
2.44878
2.30265
2.18271
2.06415
1.95399
1.84884
1.76514
1.68577
1.61464
1.54253
1.48041
1.42667
1.37314
1.3293
1.29307
1.24847
1.20454
1.1755
1.23036
1.54754
1.9965
2.1586
2.13387
2.08299
2.03452
1.99089
1.94498
1.90854
1.87616
1.84581
1.81755
1.7914
1.78039
1.77518
1.77213
1.76188
1.76358
1.77805
1.79891
1.83312
1.86966
1.90025
1.93145
1.94322
1.94437
1.93339
1.92246
1.93169
1.98566
2.15005
2.39782
2.64211
2.81895
2.82767
2.81039
2.8032
2.76087
2.7015
2.65669
2.62657
2.59663
2.56484
2.53533
2.51209
2.48787
2.45485
2.40779
2.35118
2.30509
2.27954
2.2616
2.25059
2.23875
2.21864
2.18332
2.12703
2.07009
2.04166
2.02737
2.01491
2.00333
1.98994
1.97502
1.95462
1.9137
1.85494
1.80975
1.78454
1.76171
3.76622
3.57559
3.39023
3.20317
3.02543
2.86368
2.70497
2.54692
2.41054
2.28841
2.17005
2.05727
1.95482
1.86873
1.78083
1.70351
1.63125
1.57573
1.51389
1.45732
1.40101
1.35169
1.31204
1.28871
1.35564
1.69927
2.16885
2.30585
2.27536
2.22708
2.17764
2.13812
2.09807
2.04672
1.99023
1.93981
1.89757
1.86157
1.83661
1.81434
1.79028
1.76683
1.74866
1.73468
1.7107
1.67596
1.67016
1.6821
1.70884
1.74974
1.80727
1.84732
1.86373
1.86052
1.85634
1.84759
1.85849
1.93251
2.11044
2.39655
2.62381
2.72599
2.76665
2.76399
2.72604
2.67798
2.64512
2.61623
2.58765
2.55204
2.5168
2.49255
2.46899
2.43963
2.3999
2.34617
2.29277
2.26099
2.24261
2.22586
2.20786
2.18767
2.15829
2.11891
2.0791
2.05003
2.032
2.01814
2.00736
1.99633
1.976
1.92965
1.85656
1.80655
1.79314
1.77914
3.81878
3.63671
3.45331
3.27236
3.11095
2.95329
2.79491
2.64149
2.51617
2.38973
2.27069
2.15251
2.06075
1.96605
1.87862
1.79195
1.72287
1.66012
1.59509
1.53719
1.47727
1.42575
1.39293
1.47066
1.85004
2.36393
2.47242
2.42439
2.36793
2.31821
2.28019
2.23986
2.19428
2.1414
2.07967
2.02109
1.97592
1.9375
1.90347
1.87216
1.84239
1.81365
1.78318
1.74904
1.70778
1.66575
1.65058
1.64447
1.63412
1.63292
1.64455
1.67069
1.69852
1.70342
1.70835
1.72748
1.7382
1.75036
1.7929
1.90275
2.11698
2.361
2.55525
2.69172
2.6928
2.65682
2.64809
2.64247
2.61959
2.5858
2.54183
2.49485
2.46523
2.44284
2.41892
2.38535
2.33711
2.28174
2.24252
2.21993
2.20094
2.1838
2.16829
2.14983
2.12459
2.09311
2.06177
2.03476
2.00978
1.98296
1.95627
1.92127
1.8684
1.82729
1.81493
1.7974
3.87968
3.70345
3.52184
3.34739
3.19317
3.04102
2.88016
2.74072
2.61439
2.48934
2.36136
2.25383
2.15972
2.06027
1.97094
1.88182
1.81729
1.74371
1.67843
1.61307
1.55102
1.51722
1.61871
2.03374
2.55761
2.68051
2.61597
2.52186
2.45803
2.4188
2.3784
2.33545
2.28986
2.23758
2.17296
2.10259
2.04628
2.00587
1.97166
1.93894
1.90506
1.86781
1.82804
1.78616
1.74159
1.70227
1.67057
1.64648
1.62475
1.61769
1.61236
1.60411
1.59089
1.5708
1.56431
1.56801
1.58577
1.6134
1.64464
1.67401
1.722
1.84559
2.03567
2.27773
2.49212
2.56131
2.58864
2.6154
2.6257
2.61537
2.569
2.51264
2.471
2.43981
2.4165
2.3953
2.36658
2.32418
2.27372
2.23142
2.2039
2.18386
2.16909
2.15843
2.14615
2.12541
2.0951
2.05859
2.0195
1.98138
1.94363
1.90701
1.87882
1.85823
1.84279
1.81547
3.9373
3.76449
3.59218
3.42715
3.27127
3.11739
2.96546
2.83621
2.70767
2.57736
2.44613
2.35056
2.25066
2.15481
2.05109
1.97429
1.90309
1.8292
1.7564
1.68591
1.64603
1.77843
2.23788
2.76433
2.87354
2.8066
2.71474
2.61852
2.55676
2.51379
2.46803
2.42216
2.37617
2.32571
2.26445
2.19216
2.12718
2.08103
2.04408
2.01001
1.97587
1.93948
1.8998
1.85427
1.80332
1.7547
1.716
1.68233
1.66151
1.64359
1.62225
1.59731
1.57418
1.55609
1.53426
1.50365
1.48582
1.48907
1.50084
1.52246
1.53532
1.55282
1.60417
1.71372
1.90511
2.15552
2.35042
2.47387
2.55594
2.57561
2.56864
2.54372
2.49581
2.45444
2.41739
2.38891
2.36818
2.34373
2.31041
2.26951
2.23131
2.20055
2.17424
2.15185
2.13727
2.12531
2.10764
2.07796
2.03539
1.98703
1.94138
1.90771
1.88944
1.87453
1.86045
1.82989
4.01765
3.84555
3.67542
3.51407
3.35956
3.20175
3.05316
2.92362
2.7968
2.6627
2.54113
2.4415
2.33858
2.23944
2.13877
2.06812
1.99021
1.90755
1.83115
1.79438
1.95969
2.50232
2.95398
3.09068
3.0288
2.93588
2.83904
2.73151
2.66007
2.6078
2.55657
2.50689
2.45808
2.40728
2.34951
2.2803
2.20824
2.15158
2.10857
2.07054
2.03461
1.99935
1.96292
1.92065
1.86728
1.80675
1.75746
1.72561
1.7035
1.68191
1.65832
1.63523
1.61012
1.57708
1.5371
1.49906
1.47066
1.45726
1.45373
1.44951
1.44123
1.43667
1.44006
1.44898
1.47584
1.5704
1.75982
2.0242
2.2409
2.40175
2.48843
2.50033
2.49002
2.47496
2.44515
2.39764
2.36681
2.34728
2.32542
2.29778
2.2634
2.21789
2.17467
2.14838
2.13323
2.12128
2.10687
2.08311
2.04377
1.99187
1.95006
1.92485
1.90676
1.89003
1.87425
1.84056
4.08867
3.91882
3.75286
3.5936
3.4375
3.27832
3.13641
3.00838
2.87939
2.73948
2.63084
2.53005
2.42848
2.31889
2.22972
2.15445
2.06574
1.98583
1.95213
2.15396
2.77051
3.22948
3.29045
3.21812
3.13056
3.04545
2.95041
2.8439
2.76141
2.70133
2.64541
2.59142
2.53894
2.4861
2.42948
2.36446
2.29
2.21962
2.16779
2.12807
2.09255
2.0587
2.02489
1.98738
1.93991
1.877
1.80862
1.76125
1.73373
1.71177
1.69305
1.67605
1.65595
1.62784
1.58869
1.53542
1.47799
1.44609
1.43656
1.4302
1.42324
1.4173
1.40683
1.38917
1.36619
1.36085
1.37633
1.44995
1.62366
1.88219
2.11896
2.28384
2.40388
2.42891
2.41796
2.39404
2.37011
2.34154
2.32346
2.3071
2.27974
2.236
2.19271
2.15673
2.12943
2.1163
2.109
2.09432
2.05443
2.00059
1.96566
1.94179
1.91952
1.89898
1.88274
1.85079
4.16514
3.99425
3.83405
3.67666
3.52141
3.3683
3.22511
3.09414
2.96228
2.82925
2.7251
2.62058
2.5149
2.39996
2.32272
2.23138
2.1441
2.12844
2.39314
3.06485
3.52036
3.53445
3.43926
3.32339
3.22748
3.14286
3.05426
2.95822
2.86768
2.79565
2.73307
2.67372
2.61599
2.55963
2.50349
2.44378
2.37408
2.29546
2.22823
2.1811
2.14381
2.11047
2.07829
2.04379
2.00171
1.94631
1.88088
1.82475
1.78359
1.74966
1.7217
1.69763
1.67771
1.66113
1.63822
1.60053
1.54749
1.48297
1.44426
1.42803
1.41753
1.40826
1.39817
1.38509
1.36639
1.33575
1.30908
1.29788
1.30735
1.36263
1.51642
1.73987
1.99984
2.15575
2.28721
2.34286
2.3452
2.34139
2.32653
2.29276
2.25506
2.22764
2.20503
2.17436
2.14232
2.12233
2.10674
2.08081
2.04093
2.00418
1.97991
1.95586
1.93154
1.9116
1.8934
1.85288
4.22218
4.08216
3.91526
3.7643
3.61062
3.45796
3.31873
3.18687
3.05035
2.91911
2.81305
2.71
2.59641
2.49422
2.39679
2.29797
2.32004
2.66729
3.42343
3.798
3.73105
3.61208
3.5123
3.42699
3.34219
3.25598
3.1703
3.08016
2.98251
2.89247
2.81844
2.75302
2.69071
2.63082
2.57376
2.51674
2.45282
2.37599
2.29903
2.242
2.19882
2.15987
2.12178
2.08324
2.04235
1.995
1.93926
1.8847
1.84148
1.80593
1.77131
1.73534
1.7
1.6702
1.64945
1.63062
1.60055
1.55213
1.49878
1.45361
1.42569
1.41015
1.40009
1.39222
1.37789
1.34994
1.3179
1.28794
1.26862
1.2618
1.26588
1.30129
1.42103
1.6011
1.8243
2.00955
2.15272
2.2655
2.29252
2.28875
2.26492
2.21249
2.17194
2.15871
2.15193
2.13325
2.11042
2.08121
2.04841
2.01683
1.98334
1.95488
1.94151
1.9296
1.91273
1.86381
4.20278
4.16526
4.00724
3.84616
3.69328
3.54708
3.41384
3.27682
3.13612
3.01286
2.90562
2.79465
2.6767
2.5746
2.46393
2.5031
2.96317
3.75544
4.14708
4.08322
3.89489
3.73122
3.62294
3.54225
3.45804
3.36893
3.27876
3.18561
3.08676
2.9902
2.9064
2.83434
2.76851
2.70614
2.64639
2.5871
2.52323
2.44922
2.37128
2.3079
2.26007
2.21803
2.17632
2.13265
2.08594
2.03542
1.98081
1.92645
1.88109
1.84537
1.81245
1.77793
1.74224
1.70738
1.67473
1.64383
1.61637
1.58929
1.5544
1.51441
1.47458
1.4368
1.40607
1.38709
1.37802
1.36898
1.34726
1.30971
1.27378
1.25631
1.24343
1.23713
1.23741
1.25485
1.31713
1.45922
1.65861
1.87141
2.04623
2.19161
2.22367
2.2161
2.18805
2.1432
2.10167
2.08905
2.08866
2.08243
2.0631
2.03939
2.01274
1.97976
1.93756
1.901
1.8885
1.86945
3.73536
4.16732
4.09816
3.93952
3.77751
3.63494
3.50127
3.36665
3.22509
3.11015
2.99474
2.88044
2.76339
2.646
2.70883
3.2841
4.13381
4.40983
4.29231
4.15381
4.01475
3.88618
3.77472
3.67262
3.57166
3.47172
3.37219
3.27267
3.17442
3.08052
2.9953
2.92032
2.85231
2.78722
2.72253
2.65641
2.58677
2.51254
2.43773
2.37156
2.31744
2.27109
2.22739
2.183
2.13577
2.08425
2.02753
1.96733
1.91095
1.86657
1.83495
1.80883
1.78169
1.7509
1.71607
1.67823
1.64076
1.60801
1.58045
1.5523
1.51894
1.48156
1.44426
1.41043
1.38171
1.36281
1.35259
1.33832
1.31079
1.27602
1.24869
1.23399
1.22214
1.21181
1.20076
1.20115
1.23104
1.34189
1.5258
1.76655
1.94231
2.10618
2.14593
2.13618
2.10057
2.06936
2.05321
2.04954
2.06419
2.06192
2.04579
2.01065
1.95165
1.90612
1.87876
1.84953
2.43586
3.89131
4.12882
4.03885
3.87042
3.72464
3.59142
3.45411
3.31831
3.20128
3.08265
2.96936
2.84456
2.95465
3.66823
4.49334
4.78782
4.67517
4.44182
4.26263
4.13369
4.02237
3.90958
3.79502
3.6851
3.57853
3.4735
3.37036
3.2709
3.17656
3.08917
3.00985
2.93647
2.86524
2.79332
2.71949
2.64438
2.57034
2.4998
2.43405
2.37352
2.31834
2.26747
2.21932
2.17235
2.1245
2.07314
2.01752
1.96041
1.90599
1.85957
1.82593
1.80102
1.77704
1.74851
1.71385
1.67665
1.63949
1.60136
1.56388
1.53122
1.50276
1.47376
1.44125
1.40834
1.38038
1.3565
1.34039
1.3275
1.30586
1.27725
1.24946
1.2266
1.20809
1.18485
1.16746
1.15485
1.15312
1.1747
1.26803
1.43007
1.66953
1.84939
1.96958
2.05093
2.04976
2.04366
2.05171
2.04413
2.02543
2.0035
1.98333
1.96024
1.92069
1.88315
1.84956
1.54527
2.74801
3.96497
4.08833
3.98053
3.82403
3.68183
3.53827
3.41589
3.28689
3.17512
3.06411
3.23341
4.1099
4.92941
5.02756
4.94561
4.79762
4.62454
4.44892
4.29047
4.15044
4.02721
3.91193
3.79878
3.68852
3.58152
3.47671
3.37331
3.27276
3.17875
3.09305
3.01318
2.9348
2.8549
2.7736
2.69425
2.62037
2.55229
2.48813
2.4263
2.36671
2.30923
2.25289
2.19721
2.14381
2.09483
2.04819
2.00015
1.95146
1.90505
1.86314
1.82444
1.78681
1.75319
1.7263
1.70085
1.67017
1.6346
1.5985
1.5631
1.52718
1.49239
1.46151
1.43397
1.40518
1.37357
1.34559
1.3265
1.31483
1.30175
1.27974
1.24915
1.21674
1.18715
1.16335
1.14689
1.14008
1.13688
1.13398
1.14711
1.20831
1.34917
1.5197
1.70894
1.83286
1.93525
2.00905
2.0292
2.02443
1.99326
1.94192
1.91214
1.90522
1.89476
1.86152
1.40408
1.65952
3.00987
3.97965
4.04018
3.92997
3.77255
3.63198
3.49536
3.37924
3.29567
3.60082
4.58824
5.41965
5.52862
5.28527
5.04961
4.9085
4.77988
4.61516
4.43979
4.28129
4.14536
4.02345
3.90759
3.79485
3.68396
3.57373
3.46338
3.35488
3.25321
3.16089
3.07559
2.99276
2.90917
2.82475
2.74202
2.66418
2.59269
2.5267
2.46403
2.40327
2.34426
2.28683
2.23019
2.17355
2.11733
2.06407
2.01723
1.97615
1.93626
1.89506
1.8544
1.81729
1.78273
1.74638
1.70631
1.66827
1.63768
1.6121
1.58509
1.55333
1.52064
1.48911
1.45646
1.42393
1.39322
1.3654
1.34145
1.31981
1.30352
1.29067
1.27234
1.23783
1.19593
1.16773
1.15299
1.14212
1.12985
1.11969
1.11372
1.1074
1.10843
1.13514
1.22507
1.37789
1.55787
1.72578
1.87447
1.96367
1.96566
1.94419
1.89596
1.85569
1.84507
1.8461
1.40003
1.41075
1.79599
3.2023
3.98333
3.98907
3.88014
3.71641
3.57739
3.55027
4.01294
5.20184
5.87656
5.8203
5.69955
5.49024
5.25078
5.07247
4.91583
4.74838
4.57507
4.40775
4.25728
4.12441
4.0025
3.88595
3.77022
3.65246
3.53366
3.41734
3.3086
3.2101
3.12019
3.03519
2.95175
2.86801
2.78381
2.70151
2.62475
2.55533
2.49229
2.43258
2.3741
2.31573
2.25657
2.19733
2.1407
2.08842
2.04011
1.99477
1.95209
1.91211
1.87359
1.8351
1.79524
1.75745
1.72446
1.69259
1.66185
1.6309
1.59834
1.56237
1.52513
1.49377
1.46766
1.4413
1.41162
1.38283
1.36073
1.34136
1.32264
1.30132
1.27604
1.24673
1.21662
1.18904
1.16792
1.15217
1.13883
1.12594
1.11351
1.10015
1.0898
1.0789
1.06378
1.0722
1.12987
1.266
1.45284
1.63701
1.77307
1.86504
1.87279
1.84725
1.81389
1.80337
1.40001
1.40011
1.42315
1.93548
3.33691
3.96248
3.94217
3.78956
3.83963
4.55258
5.78873
6.39914
6.3725
6.02182
5.80434
5.62752
5.41599
5.2094
5.0163
4.83218
4.65476
4.48915
4.33764
4.19859
4.06848
3.94445
3.8234
3.70005
3.57604
3.459
3.35013
3.24832
3.15352
3.06563
2.98296
2.90199
2.81908
2.73362
2.64913
2.57095
2.50406
2.44731
2.39513
2.34276
2.28679
2.22588
2.16247
2.10328
2.05445
2.01399
1.97526
1.93571
1.8969
1.85842
1.81317
1.75944
1.72993
1.71684
1.6966
1.66395
1.62303
1.58131
1.54601
1.51444
1.4782
1.43621
1.41798
1.40858
1.39303
1.37374
1.35257
1.33072
1.30956
1.28768
1.26059
1.22705
1.19686
1.17539
1.1579
1.14005
1.12251
1.10571
1.09245
1.07863
1.05488
1.03218
1.01617
1.0246
1.06603
1.17595
1.34405
1.52767
1.65962
1.76998
1.78842
1.77242
1.40001
1.40001
1.4003
1.44053
2.0587
3.49672
3.77914
4.04886
5.16059
6.38209
6.6913
6.68727
6.47486
6.1872
5.92914
5.73428
5.53248
5.30158
5.08479
4.88959
4.70709
4.5376
4.38398
4.2445
4.11586
3.99352
3.87261
3.74907
3.62073
3.49657
3.38564
3.28387
3.18729
3.09463
3.00535
2.91917
2.83547
2.75313
2.672
2.59394
2.52398
2.46445
2.41025
2.357
2.30223
2.24448
2.18469
2.12652
2.07567
2.02995
1.98445
1.93775
1.89532