/*--------------------------------*- C++ -*----------------------------------*\
  =========                 |
  \\      /  F ield         | OpenFOAM: The Open Source CFD Toolbox
   \\    /   O peration     | Website:  https://openfoam.org
    \\  /    A nd           | Version:  7
     \\/     M anipulation  |
\*---------------------------------------------------------------------------*/
FoamFile
{
    version     2.0;
    format      ascii;
    class       volScalarField;
    location    "2.3";
    object      T;
}
// * * * * * * * * * * * * * * * * * * * * * * * * * * * * * * * * * * * * * //

dimensions      [0 0 0 1 0 0 0];

internalField   nonuniform List<scalar> 
4032
(
1
1
1
1
1
1
1
1
1
1
1
1
2.18843
2.71131
2.7241
2.73874
2.75642
2.7751
2.79266
2.80686
2.81827
2.82897
2.83925
2.84604
1
1
1
1
1
1
1
1
1
1
1
1
2.16837
2.70744
2.72268
2.7372
2.75478
2.77312
2.79016
2.80368
2.81447
2.82468
2.83457
2.8412
1
1
1
1
1
1
1
1
1
1
1
1
2.12052
2.70144
2.71993
2.73438
2.75184
2.76981
2.7863
2.79908
2.8091
2.81873
2.82803
2.83452
1
1
1
1
1
1
1
1
1
1
1
1
2.04444
2.68826
2.71512
2.72976
2.74716
2.76475
2.78073
2.7928
2.80194
2.81061
2.81858
2.8235
1
1
1
1
1
1
1
1
1
1
1
1
1.93583
2.6636
2.70496
2.7205
2.73821
2.75552
2.7707
2.78143
2.78896
2.79642
2.80358
2.80967
1
1
1
1
1
1
1
1
1
1
1
1
1.79152
2.62238
2.68862
2.70625
2.72514
2.74271
2.75751
2.7678
2.77456
2.78064
2.78386
2.78112
1
1
1
1
1
1
1
1
1
1
1
1
1.59042
2.54912
2.6668
2.68723
2.70736
2.72561
2.7407
2.75029
2.75338
2.7517
2.74803
2.74393
1
1
1
1
1
1
1
1
1
1
1
1
1.30813
2.43347
2.64911
2.66326
2.68412
2.70294
2.71768
2.72669
2.72642
2.72351
2.72199
2.73444
1
1
1
1
1
1
1
1
1
1
1
1
1.02885
2.30992
2.65223
2.64929
2.6575
2.67161
2.68482
2.69413
2.6905
2.67631
2.63024
2.53287
1
1
1
1
1
1
1
1
1
1
1
1
1.00019
2.1346
2.62387
2.6247
2.63028
2.63992
2.64695
2.65344
2.6466
2.62006
2.56737
2.40937
1
1
1
1
1
1
1
1
1
1
1
1
0.999998
1.84641
2.56252
2.61528
2.61468
2.61619
2.61482
2.61287
2.60177
2.5685
2.50794
2.33043
1
1
1
1
1
1
1
1
1
1
1
1
1
1.42271
2.42017
2.59557
2.595
2.593
2.58662
2.57659
2.558
2.52329
2.45165
2.29712
1
1
1
1
1
1
1
1
1
1
1
1
1
1.05008
2.23022
2.56173
2.56972
2.56706
2.55806
2.54359
2.51988
2.48348
2.40933
2.29647
1
1
1
1
1
1
1
1
1
1
1
1
1
1.00047
1.93705
2.49092
2.54544
2.53934
2.52855
2.51241
2.48755
2.44857
2.38003
2.29189
1
1
1
1
1
1
1
1
1
1
1
1
1
0.999997
1.41316
2.34437
2.51652
2.50511
2.49742
2.48225
2.45964
2.4191
2.36007
2.2887
1
1
1
1
1
1
1
1
1
1
1
1
1
0.999999
1.04204
2.15997
2.46945
2.45991
2.46111
2.45102
2.43024
2.39372
2.34351
2.28318
1
1
1
1
1
1
1
1
1
1
1
1
1
1
1.00029
1.73575
2.36415
2.43748
2.43394
2.42337
2.40225
2.36958
2.32708
2.27595
1
1
1
1
1
1
1
1
1
1
1
1
1
1
0.999999
1.15275
2.17919
2.41992
2.41021
2.39749
2.37558
2.34516
2.30785
2.26421
1
1
1
1
1
1
1
1
1
1
1
1
1
1
1
1.00499
1.84848
2.33405
2.38463
2.3687
2.34861
2.321
2.28762
2.24988
1
1
1
1
1
1
1
1
1
1
1
1
1
1
1
1
1.234
2.14678
2.3622
2.34045
2.32248
2.29844
2.26921
2.23609
1
1
1
1
1
1
1
1
1
1
1
1
1
1
1
1
1.01208
1.83479
2.29423
2.3045
2.29144
2.27267
2.24904
2.22119
1
1
1
1
1
1
1
1
1
1
1
1
1
1
1
1
1.00004
1.24175
2.09435
2.28534
2.26589
2.25065
2.23104
2.20726
1
1
1
1
1
1
1
1
1
1
1
1
1
1
1
1
1
1.01284
1.69772
2.19487
2.24308
2.22602
2.20852
2.18802
1
1
1
1
1
1
1
1
1
1
1
1
1
1
1
1
1
1.00007
1.1607
1.97325
2.22293
2.20221
2.18687
2.16837
1
1
1
1
1
1
1
1
1
1
1
1
1
1
1
1
1
1
1.00562
1.47349
2.06617
2.1819
2.16165
2.14495
1
1
1
1
1
1
1
1
1
1
1
1
1
1
1
1
1
1
1.00003
1.06316
1.76895
2.13523
2.14148
2.12714
1
1
1
1
1
1
1
1
1
1
1
1
1
1
1
1
1
1
1
1.00109
1.24323
1.9263
2.11943
2.10646
1
1
1
1
1
1
1
1
1
1
1
1
1
1
1
1
1
1
1
1
1.01401
1.46801
1.98634
2.08923
1
1
1
1
1
1
1
1
1
1
1
1
1
1
1
1
1
1
1
1
1.00013
1.06539
1.66748
2.00725
1
1
1
1
1
1
1
1
1
1
1
1
1
1
1
1
1
1
1
1
1
1.00135
1.17894
1.77874
1
1
1
1
1
1
1
1
1
1
1
1
1
1
1
1
1
1
1
1
1
1.00001
1.00802
1.31474
1
1
1
1
1
1
1
1
1
1
1
1
1
1
1
1
1
1
1
1
1
1
1.00007
1.02755
1
1
1
1
1
1
1
1
1
1
1
1
1
1
1
1
1
1
1
1
1
1
1
1.0004
1
1
1
1
1
1
1
1
1
1
1
1
1
1
1
1
1
1
1
1
1
1
1
1
1
1
1
1
1
1
1
1
1
1
1
1
1
1
1
1
1
1
1
1
1
1
1
1
1
1
1
1
1
1
1
1
1
1
1
1
1
1
1
1
1
1
1
1
1
1
1
1
1
1
1
1
1
1
1
1
1
1
1
1
1
1
1
1
1
1
1
1
1
1
1
1
1
1
1
1
1
1
1
1
1
1
1
1
1
1
1
1
1
1
1
1
1
1
1
1
1
1
1
1
1
1
1
1
1
1
1
1
1
1
1
1
1
1
1
1
1
1
1
1
1
1
1
1
1
1
1
1
1
1
1
1
1
1
1
1
1
1
1
1
1
1
1
1
1.71157
1.22839
0.971266
1.0257
1.18597
1.26694
1.31909
1.39158
1.51917
1.64947
1.71299
1.71983
1.70618
1.6839
1.6815
1.71089
1.73031
1.74504
1.75703
1.74955
1.7234
1.70059
1.69961
1.71412
1.73054
1.73501
1.72901
1.70955
1.69226
1.68919
1.69251
1.70315
1.71156
1.71111
1.70311
1.68949
1.68885
1.73511
1.94051
2.45794
2.77849
2.75437
2.69122
2.6556
2.63577
2.59715
2.56028
2.5288
2.50915
2.49569
2.48147
2.46324
2.44382
2.42531
2.41079
2.39924
2.38971
2.37956
2.36693
2.35362
2.33979
2.32572
2.31097
2.29564
2.28339
2.27403
2.26527
2.25871
2.25421
2.24787
2.23915
2.22727
2.20594
2.17462
2.15227
2.14182
2.13514
2.13162
2.13127
2.12863
2.1208
2.1097
2.09079
2.06181
2.04265
2.03389
2.02619
2.01945
2.01575
2.0103
2.0016
1.99271
1.98039
1.95828
1.93955
1.92575
1.94837
1.64854
1.49648
1.38783
1.34965
1.30802
1.26451
1.2705
1.30281
1.35996
1.40318
1.44442
1.49547
1.52984
1.55724
1.59187
1.62036
1.6457
1.66619
1.66756
1.66083
1.65611
1.65528
1.66305
1.6755
1.68122
1.68236
1.67857
1.67307
1.6702
1.67064
1.67323
1.67512
1.67481
1.67004
1.67316
1.70835
1.8988
2.04237
2.18489
2.48501
2.59761
2.61007
2.60184
2.58225
2.55034
2.52326
2.50122
2.48557
2.47349
2.46098
2.44444
2.42674
2.40969
2.39351
2.37956
2.3685
2.35828
2.34888
2.33816
2.3272
2.3162
2.30419
2.2894
2.27324
2.26152
2.25274
2.24504
2.23877
2.23347
2.2268
2.21659
2.19989
2.17542
2.1502
2.13619
2.12957
2.12528
2.12224
2.11887
2.11291
2.10302
2.08682
2.06271
2.0406
2.02973
2.02217
2.0151
2.00915
2.00255
1.99472
1.98651
1.97645
1.95952
1.94035
1.92305
2.05499
1.84545
1.70022
1.56472
1.46813
1.40887
1.36445
1.3178
1.25706
1.24386
1.25851
1.2928
1.33686
1.3903
1.42804
1.44732
1.47244
1.50319
1.53113
1.55119
1.56912
1.5831
1.59498
1.60109
1.60364
1.60282
1.6027
1.60476
1.60969
1.61551
1.61884
1.61788
1.61182
1.6063
1.61468
1.65585
1.81332
2.03038
2.05276
2.03356
2.12385
2.32913
2.47068
2.5232
2.50882
2.49338
2.47585
2.45552
2.43845
2.42185
2.40717
2.39299
2.37948
2.36716
2.35564
2.34257
2.32644
2.31154
2.3013
2.29294
2.2857
2.27874
2.27156
2.26239
2.24778
2.23075
2.21978
2.21186
2.20465
2.19788
2.1901
2.18057
2.16954
2.15551
2.13754
2.11915
2.10902
2.10433
2.10006
2.09528
2.0883
2.07788
2.0648
2.04934
2.03173
2.01619
2.00692
1.99948
1.99241
1.9848
1.97683
1.96826
1.95845
1.94684
1.93454
1.91568
2.10834
1.95387
1.83172
1.71335
1.58844
1.51314
1.48345
1.44713
1.38715
1.31768
1.28587
1.2852
1.29385
1.30919
1.332
1.34474
1.3636
1.39227
1.4202
1.44147
1.46669
1.48932
1.51051
1.52871
1.53671
1.53775
1.53981
1.54619
1.55677
1.56216
1.56129
1.55582
1.54703
1.55207
1.60495
1.74637
1.95426
2.02685
2.02075
2.00006
1.98757
2.04785
2.21403
2.34821
2.39493
2.42743
2.42074
2.40358
2.38607
2.3667
2.34986
2.33755
2.32694
2.31742
2.30775
2.29678
2.28096
2.2614
2.24875
2.24155
2.23585
2.23093
2.22536
2.21821
2.20695
2.18891
2.17117
2.16185
2.15565
2.14932
2.14209
2.13423
2.12644
2.11802
2.10755
2.09328
2.07697
2.06702
2.06209
2.05684
2.04935
2.03945
2.0294
2.01994
2.00951
1.99597
1.9808
1.97063
1.96313
1.95556
1.94753
1.93846
1.9292
1.9214
1.91501
1.90085
2.16045
2.02774
1.91494
1.82201
1.72667
1.61939
1.55057
1.52401
1.49012
1.44122
1.37587
1.32118
1.30154
1.302
1.31182
1.32822
1.32742
1.32675
1.33203
1.34513
1.37392
1.41268
1.44429
1.46847
1.48106
1.48424
1.48565
1.49508
1.50996
1.523
1.52356
1.51941
1.52164
1.56497
1.74833
1.90577
2.00262
2.00426
1.99583
1.98844
1.97708
1.96527
1.99758
2.11486
2.24419
2.34081
2.35961
2.36986
2.35748
2.3365
2.31613
2.30117
2.28975
2.28032
2.27085
2.26038
2.24583
2.22507
2.20718
2.19887
2.19343
2.18906
2.18425
2.17731
2.1675
2.15254
2.13181
2.11291
2.10302
2.09681
2.09136
2.08686
2.08254
2.07738
2.0712
2.06284
2.04906
2.03129
2.01915
2.01133
2.0036
1.99636
1.99017
1.98369
1.97653
1.96755
1.9545
1.93917
1.92743
1.91856
1.91009
1.90174
1.89517
1.89083
1.88718
1.87721
2.18983
2.08571
1.97847
1.88809
1.81631
1.73756
1.64644
1.58057
1.55222
1.52347
1.4835
1.42624
1.36865
1.35186
1.34969
1.34662
1.33574
1.32364
1.31029
1.30799
1.31399
1.33286
1.36107
1.39426
1.42739
1.44502
1.45377
1.46426
1.47807
1.49351
1.49473
1.50103
1.54618
1.72558
1.92435
1.98059
1.99312
1.99641
1.98963
1.98287
1.9719
1.95505
1.94299
1.9552
2.02653
2.16894
2.27224
2.32066
2.32539
2.31256
2.29672
2.28097
2.26745
2.25739
2.24776
2.2377
2.22453
2.20586
2.18488
2.17035
2.16304
2.15734
2.15196
2.14516
2.13538
2.12281
2.10618
2.08442
2.06531
2.05631
2.05138
2.04757
2.04468
2.04184
2.03746
2.03176
2.02231
2.00431
1.98327
1.97154
1.96537
1.96047
1.95545
1.95052
1.94406
1.93652
1.92654
1.91074
1.89335
1.88118
1.87272
1.86744
1.86442
1.86203
1.85976
1.85236
2.20718
2.12318
2.03576
1.94703
1.87127
1.80871
1.73812
1.66883
1.60809
1.56757
1.54243
1.51066
1.46839
1.41422
1.38291
1.37179
1.35622
1.34254
1.33526
1.32437
1.31249
1.30988
1.31243
1.32184
1.34528
1.37629
1.40974
1.43467
1.44763
1.4594
1.46812
1.53307
1.70673
1.92162
1.98028
1.99257
1.99475
1.99434
1.98817
1.97914
1.96543
1.94612
1.93185
1.92297
1.9238
1.96206
2.0704
2.19138
2.26645
2.27266
2.27298
2.26442
2.25298
2.24315
2.23181
2.22035
2.20759
2.1924
2.17508
2.15638
2.14118
2.13224
2.12499
2.11843
2.10953
2.09824
2.08511
2.06832
2.04644
2.02964
2.02319
2.01901
2.01576
2.01335
2.00965
2.00416
1.99604
1.98147
1.95913
1.94372
1.93823
1.93354
1.92865
1.92465
1.91872
1.9111
1.90163
1.88482
1.86308
1.84971
1.84397
1.84078
1.83876
1.83745
1.83601
1.83015
2.21498
2.14457
2.07185
1.99395
1.92165
1.85812
1.79838
1.74126
1.68191
1.62203
1.58414
1.56386
1.53819
1.49903
1.45042
1.41656
1.39858
1.38786
1.37964
1.36492
1.34253
1.32057
1.30981
1.31088
1.31398
1.32057
1.33779
1.3621
1.38822
1.41841
1.48775
1.70689
1.89147
1.98271
1.99434
1.9918
1.98663
1.98153
1.97355
1.96296
1.94931
1.93234
1.9178
1.90723
1.89934
1.89036
1.90335
1.96285
2.08419
2.17263
2.22269
2.22683
2.22758
2.22484
2.21486
2.20218
2.18963
2.17702
2.16342
2.14693
2.12732
2.11053
2.09963
2.0906
2.08303
2.07498
2.0652
2.05441
2.03945
2.01835
2.00187
1.99541
1.99118
1.98811
1.98447
1.97902
1.97223
1.96241
1.94649
1.92888
1.91999
1.91477
1.9097
1.90463
1.89842
1.89114
1.8797
1.86076
1.83957
1.82791
1.82333
1.82064
1.81904
1.81772
1.81656
1.81176
2.21718
2.157
2.09414
2.02913
1.96488
1.90161
1.84281
1.79312
1.74512
1.69173
1.64035
1.60362
1.57733
1.55267
1.5237
1.49153
1.45115
1.41662
1.40503
1.39583
1.37813
1.35829
1.34459
1.32938
1.31704
1.31623
1.3175
1.32284
1.33419
1.38604
1.61855
1.83139
1.9221
1.94551
1.95049
1.9469
1.94753
1.9499
1.9494
1.93722
1.92589
1.9172
1.9061
1.89198
1.87614
1.86391
1.8572
1.85323
1.8798
1.96365
2.06988
2.14442
2.17124
2.18508
2.18701
2.18129
2.17128
2.1595
2.1456
2.13117
2.11329
2.09163
2.07482
2.06493
2.05688
2.05053
2.04477
2.03722
2.02799
2.01272
1.9901
1.97506
1.96927
1.96516
1.96138
1.95636
1.95004
1.94302
1.93396
1.92037
1.90601
1.89771
1.89152
1.88494
1.87697
1.86654
1.85407
1.83941
1.82465
1.81317
1.80691
1.80431
1.80306
1.80267
1.80268
1.79823
2.21409
2.16207
2.10625
2.05001
1.99563
1.94
1.88401
1.83318
1.78739
1.744
1.70253
1.66334
1.61879
1.58108
1.56256
1.5438
1.51486
1.47873
1.44665
1.42794
1.4124
1.3974
1.38655
1.37197
1.35134
1.32697
1.31767
1.32172
1.3675
1.55843
1.78116
1.83549
1.86181
1.85925
1.86103
1.86743
1.87982
1.88871
1.89539
1.89273
1.88799
1.88905
1.88395
1.87038
1.85099
1.83771
1.82999
1.82481
1.82145
1.82023
1.8573
1.9528
2.03643
2.09705
2.12325
2.13696
2.14571
2.13858
2.12638
2.11138
2.09358
2.07323
2.05223
2.03883
2.03078
2.02486
2.02087
2.01579
2.00968
2.00056
1.98369
1.96124
1.94772
1.94184
1.93745
1.93413
1.92965
1.9241
1.91769
1.90773
1.89193
1.87806
1.87069
1.86307
1.8532
1.84206
1.83097
1.82155
1.81341
1.80482
1.79612
1.79021
1.78726
1.78533
1.78301
1.77396
2.20726
2.161
2.11353
2.06589
2.01578
1.96432
1.91706
1.87181
1.8259
1.77891
1.74215
1.70711
1.66918
1.63281
1.60053
1.57086
1.54763
1.52674
1.50287
1.4781
1.45284
1.42595
1.41042
1.40033
1.38377
1.36462
1.35162
1.38934
1.56587
1.78304
1.84655
1.8375
1.82124
1.80623
1.79466
1.78632
1.78635
1.79196
1.80099
1.81176
1.82347
1.83879
1.84094
1.83553
1.82159
1.8134
1.80683
1.80256
1.79356
1.7852
1.77242
1.78302
1.82693
1.91218
1.99967
2.05479
2.08547
2.09976
2.09921
2.08892
2.07109
2.05185
2.03112
2.01387
2.00448
1.99818
1.99322
1.98888
1.98491
1.97971
1.97
1.95256
1.93096
1.9181
1.91262
1.9086
1.90629
1.90325
1.89756
1.88996
1.87694
1.85757
1.84161
1.83243
1.82508
1.8171
1.8101
1.80531
1.8009
1.79501
1.78628
1.77722
1.77156
1.7668
1.7605
1.74912
2.19879
2.15747
2.11566
2.07371
2.02782
1.98108
1.93906
1.89689
1.85383
1.8122
1.77508
1.73643
1.70045
1.67106
1.6423
1.61113
1.57717
1.55155
1.53552
1.51696
1.49643
1.47122
1.44622
1.42573
1.41076
1.40384
1.44001
1.61471
1.81329
1.87369
1.86067
1.83798
1.81377
1.79661
1.7839
1.77369
1.76017
1.74538
1.73259
1.72814
1.73058
1.73726
1.74932
1.75927
1.76773
1.77334
1.77061
1.76204
1.75903
1.75774
1.7506
1.73746
1.72459
1.73888
1.79741
1.88499
1.96626
2.01625
2.04166
2.048
2.04206
2.02909
2.01283
1.99591
1.98054
1.97136
1.96453
1.95836
1.95405
1.95091
1.94605
1.93632
1.9203
1.90059
1.88739
1.88152
1.87792
1.87652
1.8724
1.86607
1.85665
1.83939
1.8172
1.80418
1.79743
1.79289
1.78983
1.78758
1.78516
1.78172
1.77499
1.76339
1.75053
1.74086
1.73434
1.72452
2.18812
2.15208
2.11481
2.07558
2.03405
1.99453
1.9546
1.91398
1.87312
1.83852
1.80198
1.76615
1.72981
1.70029
1.67108
1.6435
1.61442
1.58864
1.56585
1.54214
1.52194
1.505
1.4838
1.46216
1.44745
1.48186
1.66458
1.86367
1.91159
1.89852
1.87529
1.85317
1.83126
1.80586
1.7829
1.76379
1.74704
1.73152
1.71673
1.70509
1.6938
1.68427
1.67491
1.67082
1.6747
1.6803
1.68862
1.69774
1.70578
1.71073
1.70842
1.70518
1.69623
1.68844
1.68722
1.70499
1.76608
1.85015
1.92921
1.97895
1.9905
1.99225
1.99136
1.97837
1.95975
1.94583
1.93696
1.92936
1.92279
1.91828
1.91519
1.91055
1.90164
1.88776
1.87035
1.85566
1.84764
1.84258
1.83942
1.83553
1.82887
1.81811
1.80137
1.78354
1.77505
1.77137
1.76878
1.76701
1.76506
1.76316
1.75946
1.74767
1.72792
1.71386
1.70787
1.70284
2.17756
2.14549
2.11172
2.07465
2.03738
2.00173
1.96461
1.92511
1.88968
1.85649
1.82247
1.7883
1.75563
1.72732
1.69654
1.66839
1.6411
1.62007
1.59537
1.57174
1.5471
1.52482
1.50649
1.49605
1.53403
1.71728
1.91867
1.95271
1.93718
1.91355
1.8903
1.87075
1.8498
1.82368
1.7954
1.77006
1.74797
1.72817
1.71184
1.69678
1.68275
1.66993
1.65779
1.64617
1.62996
1.61257
1.60448
1.60752
1.61475
1.62576
1.64326
1.65183
1.65083
1.64675
1.64155
1.63275
1.63528
1.66189
1.72621
1.81972
1.89022
1.92468
1.94375
1.94492
1.9346
1.92016
1.91128
1.9034
1.89682
1.8898
1.88318
1.8788
1.87348
1.86547
1.85428
1.83871
1.82217
1.81192
1.8062
1.80098
1.79562
1.78998
1.78212
1.77135
1.7595
1.75119
1.74707
1.74509
1.74496
1.74503
1.74216
1.72908
1.70413
1.68788
1.68607
1.68358
2.16338
2.13578
2.10483
2.07109
2.03905
2.00577
1.97032
1.93399
1.90371
1.871
1.83874
1.80462
1.77771
1.74802
1.71948
1.68981
1.66574
1.64327
1.61856
1.59566
1.57085
1.54884
1.53557
1.57821
1.76937
1.97282
1.99338
1.97302
1.94759
1.92404
1.90467
1.8845
1.86201
1.8366
1.80833
1.7814
1.75897
1.73866
1.71948
1.70117
1.68381
1.66782
1.65085
1.63261
1.6129
1.594
1.58353
1.57558
1.56694
1.56121
1.56373
1.5694
1.57415
1.57207
1.56978
1.57262
1.5723
1.57338
1.58574
1.62478
1.7009
1.78146
1.84446
1.88905
1.8905
1.88108
1.88016
1.88015
1.87481
1.86705
1.85733
1.84647
1.8399
1.83497
1.82945
1.82123
1.8082
1.79082
1.77785
1.77078
1.76543
1.76129
1.75783
1.75315
1.74611
1.73729
1.72911
1.72331
1.71913
1.71464
1.70981
1.70097
1.68412
1.67015
1.66749
1.66392
2.14733
2.12398
2.09632
2.06668
2.03834
2.00844
1.97417
1.94345
1.91407
1.8833
1.84959
1.82044
1.79405
1.76442
1.73719
1.7085
1.68766
1.66217
1.63868
1.61417
1.58988
1.57843
1.62947
1.82537
2.02243
2.04116
2.01671
1.98088
1.95349
1.934
1.91413
1.89346
1.87197
1.84828
1.82053
1.79071
1.76518
1.7448
1.72634
1.70822
1.68953
1.66929
1.64857
1.62779
1.60662
1.58784
1.57203
1.55936
1.54857
1.54222
1.53567
1.52721
1.51706
1.50467
1.49633
1.49605
1.49934
1.50616
1.51419
1.52165
1.53731
1.5829
1.65196
1.73611
1.80362
1.82295
1.83056
1.84109
1.84714
1.84481
1.83379
1.82025
1.81029
1.80383
1.79969
1.79587
1.78912
1.77762
1.76218
1.74873
1.74087
1.73595
1.73275
1.73037
1.7269
1.72054
1.71178
1.70242
1.69357
1.68594
1.67823
1.6694
1.66173
1.65576
1.65145
1.6445
2.12679
2.10706
2.08445
2.06005
2.03466
2.00667
1.97661
1.95004
1.92132
1.89018
1.85689
1.83288
1.80603
1.77932
1.7484
1.72537
1.70312
1.67887
1.65406
1.62868
1.61738
1.68099
1.88051
2.07369
2.07978
2.05528
2.02157
1.98587
1.95994
1.93976
1.91849
1.89738
1.8769
1.8555
1.83047
1.80105
1.77313
1.75106
1.732
1.71393
1.69601
1.67736
1.65767
1.63591
1.61213
1.58938
1.57038
1.55391
1.54275
1.53302
1.52214
1.51046
1.49866
1.48668
1.4715
1.45467
1.44288
1.44239
1.44478
1.44985
1.45139
1.45571
1.47422
1.51818
1.59352
1.67973
1.73809
1.77349
1.79743
1.8063
1.8056
1.80011
1.78897
1.78021
1.77273
1.76789
1.764
1.75762
1.74812
1.73643
1.72511
1.71617
1.70915
1.70368
1.69994
1.69591
1.68949
1.6807
1.67022
1.6595
1.64983
1.64322
1.64009
1.63693
1.633
1.62455
2.1104
2.0921
2.07195
2.05099
2.02889
2.00318
1.97602
1.95071
1.92431
1.89437
1.86582
1.8418
1.81524
1.78859
1.76002
1.74017
1.71688
1.69096
1.66504
1.65805
1.73281
1.94924
2.1042
2.1212
2.09844
2.06564
2.03171
1.99415
1.96582
1.94311
1.92068
1.89916
1.87878
1.85849
1.83609
1.80914
1.77979
1.75457
1.73375
1.71491
1.69697
1.67937
1.66153
1.64179
1.61819
1.59189
1.56945
1.55336
1.54126
1.52945
1.51703
1.50535
1.49347
1.47908
1.46136
1.44149
1.42375
1.41491
1.41153
1.40779
1.40242
1.39867
1.39672
1.39897
1.40956
1.44989
1.52756
1.62033
1.68691
1.73424
1.76013
1.76373
1.76325
1.76158
1.75611
1.74611
1.73997
1.73569
1.72977
1.72142
1.71088
1.69733
1.68501
1.67809
1.67424
1.67058
1.66533
1.65679
1.64509
1.63303
1.62586
1.6228
1.62063
1.61788
1.61389
1.60433
2.08942
2.0728
2.05532
2.03709
2.01728
1.99399
1.97133
1.94882
1.92396
1.89406
1.8707
1.84765
1.823
1.7945
1.77115
1.75073
1.72531
1.69966
1.69699
1.7828
2.00861
2.15632
2.15115
2.12534
2.09726
2.06882
2.03673
2.00043
1.9695
1.94474
1.92167
1.89999
1.87949
1.85921
1.83761
1.81308
1.78477
1.75652
1.73389
1.71504
1.69735
1.68006
1.66295
1.64512
1.62448
1.59872
1.57058
1.5496
1.53577
1.52423
1.51441
1.50496
1.49346
1.47907
1.46208
1.44013
1.41595
1.39886
1.39054
1.38652
1.38354
1.38051
1.37454
1.36485
1.35307
1.34704
1.35341
1.38686
1.46307
1.55849
1.63484
1.68421
1.72061
1.72968
1.72765
1.7237
1.72011
1.71416
1.70937
1.70426
1.69591
1.68277
1.66955
1.65879
1.65125
1.64715
1.64386
1.63706
1.62273
1.60903
1.60415
1.60217
1.60011
1.59745
1.59399
1.58523
2.07139
2.05294
2.03738
2.02114
2.00347
1.98381
1.96354
1.94341
1.92064
1.89469
1.87414
1.85162
1.82731
1.79904
1.78054
1.7574
1.73073
1.73433
1.84535
2.06484
2.19677
2.19103
2.15893
2.12465
2.09561
2.06792
2.03815
2.00545
1.9731
1.94567
1.92138
1.89883
1.8776
1.85704
1.83611
1.81335
1.78707
1.75788
1.73148
1.71097
1.69363
1.67759
1.66185
1.64517
1.6259
1.60254
1.57663
1.55386
1.53622
1.52149
1.50889
1.49728
1.48689
1.47754
1.46488
1.44676
1.42537
1.39963
1.38297
1.37428
1.3682
1.3638
1.35968
1.35429
1.34613
1.33114
1.31488
1.30564
1.30932
1.3342
1.40412
1.49328
1.58399
1.6326
1.67511
1.6945
1.6973
1.69668
1.69233
1.68256
1.67149
1.66293
1.65586
1.64709
1.63764
1.63074
1.62386
1.61209
1.59642
1.58662
1.58443
1.58306
1.58123
1.57953
1.57653
1.56572
2.06259
2.04293
2.02244
2.00665
1.98972
1.97136
1.95369
1.93556
1.91441
1.89191
1.87278
1.8522
1.82784
1.80529
1.78225
1.75985
1.76958
1.90036
2.14077
2.22823
2.20774
2.17497
2.14707
2.12241
2.09632
2.06822
2.03939
2.00888
1.97613
1.94494
1.91806
1.89436
1.87245
1.85155
1.83106
1.80976
1.7857
1.75733
1.7286
1.70581
1.68739
1.67038
1.6537
1.6369
1.61944
1.60004
1.57795
1.55631
1.53862
1.5238
1.50946
1.49467
1.47986
1.46614
1.45479
1.44444
1.42992
1.40985
1.38963
1.37216
1.36114
1.35417
1.34922
1.34602
1.33969
1.32715
1.31271
1.29692
1.28281
1.27547
1.27696
1.2932
1.34938
1.42753
1.51204
1.57594
1.62488
1.66367
1.66913
1.66751
1.65875
1.64216
1.63087
1.62757
1.6259
1.6201
1.61078
1.59736
1.58361
1.57281
1.56568
1.56315
1.56437
1.56529
1.56362
1.5507
2.01832
2.03109
2.01314
1.99442
1.97677
1.95944
1.94354
1.92557
1.90525
1.88675
1.86959
1.84988
1.82648
1.80497
1.78372
1.80087
1.95785
2.18363
2.27659
2.25939
2.21334
2.17121
2.14213
2.11923
2.09447
2.06697
2.03803
2.00749
1.97465
1.94181
1.91269
1.8876
1.86492
1.84349
1.82263
1.80144
1.77833
1.75172
1.72373
1.6999
1.68075
1.66354
1.64676
1.62981
1.61231
1.59368
1.57338
1.55299
1.53545
1.52116
1.50754
1.49307
1.4783
1.46378
1.44966
1.4357
1.42259
1.41036
1.39589
1.38103
1.36735
1.35437
1.34302
1.33412
1.32895
1.3245
1.31401
1.29703
1.28016
1.26874
1.25887
1.25342
1.25189
1.25993
1.29046
1.35955
1.44313
1.52291
1.58164
1.62957
1.63442
1.63163
1.62238
1.60916
1.59819
1.59437
1.59352
1.58977
1.58015
1.56969
1.56079
1.55291
1.54475
1.53876
1.53761
1.53402
1.83951
2.00399
2.00036
1.98346
1.96478
1.9485
1.93279
1.91603
1.89637
1.88088
1.86353
1.84502
1.82396
1.80556
1.83168
2.01401
2.24042
2.29361
2.26522
2.23397
2.20211
2.1717
2.14377
2.11607
2.08733
2.05793
2.02788
1.99687
1.96495
1.93353
1.90468
1.87915
1.85602
1.83403
1.81232
1.7902
1.76693
1.74205
1.71663
1.6933
1.67323
1.65563
1.63934
1.62347
1.60721
1.58979
1.57069
1.5503
1.53047
1.51355
1.50031
1.48909
1.47731
1.46364
1.44903
1.43386
1.41868
1.40529
1.39414
1.38342
1.37142
1.35855
1.34554
1.33296
1.32121
1.3117
1.30529
1.29762
1.2849
1.26957
1.25604
1.24678
1.23835
1.232
1.22616
1.22684
1.24244
1.29971
1.38274
1.47725
1.53519
1.58896
1.60071
1.59797
1.58732
1.57793
1.57326
1.57106
1.57247
1.56905
1.56104
1.55022
1.5345
1.52336
1.5173
1.50985
1.43645
1.87344
1.98109
1.97294
1.95296
1.93715
1.92273
1.90644
1.88875
1.87355
1.85634
1.83882
1.82402
1.86587
2.07615
2.27622
2.33523
2.30995
2.25871
2.21741
2.18724
2.1616
2.13433
2.10437
2.0739
2.04377
2.01377
1.98357
1.95332
1.92367
1.89562
1.86988
1.8461
1.82335
1.80086
1.77818
1.75524
1.73239
1.71007
1.68863
1.66829
1.64925
1.63158
1.61531
1.60023
1.58543
1.56937
1.55108
1.53184
1.51309
1.49619
1.48263
1.47136
1.46035
1.44808
1.43385
1.41857
1.40449
1.39111
1.37751
1.3648
1.35395
1.34385
1.33286
1.32076
1.30893
1.29784
1.28928
1.28234
1.27205
1.25942
1.24672
1.23539
1.22545
1.21365
1.20483
1.19848
1.19804
1.20919
1.25749
1.33327
1.43146
1.49546
1.53582
1.56505
1.56529
1.56274
1.56237
1.55884
1.55219
1.5437
1.53628
1.52855
1.51593
1.50417
1.4952
1.06393
1.53749
1.88619
1.95964
1.94678
1.92768
1.91192
1.89518
1.88129
1.86443
1.84848
1.84161
1.89962
2.14011
2.32345
2.32998
2.31386
2.28525
2.24876
2.21043
2.1748
2.14288
2.11365
2.08485
2.05576
2.02705
1.99879
1.97046
1.94169
1.91295
1.88549
1.86012
1.83648
1.81364
1.79091
1.76816
1.74592
1.72484
1.70489
1.68552
1.66644
1.64756
1.62894
1.61068
1.59308
1.57669
1.56186
1.54739
1.53172
1.51505
1.49881
1.48377
1.4693
1.45467
1.44049
1.42868
1.41826
1.40674
1.39384
1.38035
1.36656
1.35286
1.34051
1.33009
1.32061
1.3101
1.29755
1.28529
1.27576
1.26897
1.26223
1.25218
1.23898
1.22464
1.21076
1.19939
1.19163
1.18804
1.18548
1.18322
1.18999
1.22199
1.29311
1.36654
1.44041
1.48398
1.52293
1.54496
1.5467
1.54431
1.53357
1.51746
1.50729
1.50411
1.49999
1.48909
1.00145
1.11629
1.6116
1.88349
1.93765
1.92327
1.90195
1.88543
1.8699
1.85283
1.85576
1.94901
2.18854
2.36024
2.3705
2.32504
2.2811
2.25278
2.22606
2.19206
2.15552
2.12177
2.09189
2.0644
2.03781
2.01148
1.98499
1.95793
1.93013
1.90228
1.8758
1.85151
1.82896
1.80706
1.78524
1.7635
1.7421
1.72155
1.70205
1.68331
1.66491
1.64656
1.6283
1.61006
1.5917
1.57355
1.55624
1.54012
1.52539
1.51163
1.49816
1.48424
1.47014
1.45646
1.44265
1.42812
1.41371
1.39967
1.38742
1.37724
1.36742
1.35636
1.34494
1.33359
1.32138
1.30938
1.29831
1.28731
1.2765
1.26645
1.25847
1.25201
1.2437
1.22912
1.21099
1.19815
1.19097
1.18531
1.17898
1.17351
1.16956
1.16574
1.16759
1.18246
1.23108
1.30528
1.38079
1.44236
1.49298
1.52041
1.52053
1.51311
1.49659
1.4821
1.47728
1.47616
1.00001
1.00405
1.17675
1.65848
1.87463
1.91661
1.90128
1.87808
1.85936
1.86755
1.99578
2.24997
2.37073
2.35694
2.3388
2.3052
2.26506
2.23313
2.20363
2.17208
2.13956
2.10792
2.07875
2.05203
2.02655
2.00132
1.97562
1.94903
1.92175
1.89465
1.86912
1.84581
1.82432
1.80369
1.78302
1.76221
1.74152
1.7213
1.70191
1.68335
1.6653
1.6472
1.62892
1.61037
1.59122
1.5718
1.55335
1.53678
1.52197
1.5081
1.49457
1.48131
1.46825
1.45498
1.44098
1.42685
1.41372
1.40028
1.38768
1.37633
1.36576
1.35461
1.34243
1.33108
1.32143
1.31165
1.30015
1.28843
1.27897
1.27036
1.26168
1.2522
1.24155
1.22957
1.21721
1.20497
1.19426
1.18552
1.17837
1.17201
1.16625
1.16021
1.1554
1.15039
1.14402
1.14954
1.18192
1.2523
1.33489
1.40472
1.45269
1.48494
1.48554
1.47582
1.46111
1.45419
1
1.00003
1.00904
1.2341
1.68285
1.86524
1.89188
1.87396
1.89134
2.05713
2.29021
2.39432
2.38956
2.33808
2.30956
2.28605
2.25457
2.22236
2.19121
2.16081
2.13113
2.10282
2.07575
2.04926
2.02283
1.99638
1.96985
1.94308
1.91655
1.89102
1.8668
1.84405
1.82277
1.80273
1.7834
1.76404
1.744
1.72324
1.7026
1.68291
1.66467
1.6477
1.6309
1.61334
1.59431
1.57368
1.55254
1.53351
1.51852
1.50673
1.49551
1.48348
1.47104
1.45818
1.4429
1.42405
1.41137
1.40478
1.39623
1.38408
1.36996
1.35635
1.34497
1.33457
1.32258
1.30735
1.29979
1.29576
1.28931
1.28091
1.27139
1.26186
1.25311
1.24457
1.23407
1.21988
1.2054
1.19374
1.18423
1.17534
1.16746
1.16024
1.15468
1.14895
1.13849
1.1273
1.11864
1.12337
1.14687
1.20681
1.28463
1.36088
1.41033
1.44875
1.4492
1.43992
1
1
1.00009
1.01627
1.28145
1.71552
1.82263
1.89617
2.12544
2.35122
2.4026
2.4194
2.39153
2.35181
2.31941
2.29625
2.26966
2.23699
2.20509
2.17539
2.14653
2.11824
2.09069
2.06332
2.03557
2.00703
1.97756
1.94748
1.91799
1.89099
1.86752
1.84622
1.82598
1.8063
1.7869
1.7675
1.74789
1.72793
1.7079
1.68861
1.67003
1.65207
1.63369
1.61432
1.59411
1.57349
1.55325
1.53469
1.5192
1.50604
1.49359
1.48062
1.46799
1.45536
1.44119
1.42698
1.41502
1.40255
1.38951
1.37649
1.36296
1.3518
1.34362
1.33495
1.32309
1.31031
1.29906
1.28849
1.2798
1.27188
1.26404
1.25616
1.24807
1.23853
1.2253
1.20897
1.19635
1.18795
1.18064
1.17343
1.16686
1.16084
1.15422
1.14408
1.13116
1.12009
1.11265
1.10941
1.10706
1.10901
1.12338
1.17416
1.23945
1.31542
1.36577
1.40543
1
1
1
1.00019
1.02665
1.3377
1.62405
2.16053
2.44099
2.51196
2.48636
2.46244
2.4319
2.3923
2.35219
2.32581
2.29815
2.26851
2.23677
2.20396
2.17182
2.14174
2.1129
2.08349
2.05215
2.01835
1.98329
1.95124
1.9253
1.9026
1.88019
1.85853
1.83776
1.8173
1.79662
1.77552
1.75431
1.73357
1.71431
1.69829
1.68407
1.66749
1.64826
1.62755
1.6055
1.58213
1.55846
1.53765
1.52066
1.50721
1.49581
1.48368
1.47086
1.45699
1.44192
1.4275
1.41407
1.40055
1.38738
1.37473
1.36412
1.35581
1.34685
1.33521
1.32146
1.30825
1.2961
1.28557
1.27686
1.26921
1.26209
1.25512
1.24762
1.23794
1.22358
1.2059
1.19369
1.18694
1.18157
1.17624
1.17063
1.16408
1.15548
1.1431
1.12875
1.11723
1.1104
1.10631
1.10322
1.10214
1.10106
1.10136
1.10876
1.13795
1.18307
1.28587
1
1
1
1
1.00049
1.03484
1.8116
2.65723
2.6915
2.63023
2.5695
2.51961
2.48101
2.4396
2.39934
2.36692
2.33512
2.30487
2.27319
2.23818
2.20256
2.16869
2.13586
2.10228
2.06688
2.03005
1.99379
1.95989
1.92831
1.90083
1.87834
1.85885
1.84018
1.82093
1.80049
1.77903
1.75763
1.73738
1.71847
1.70013
1.68139
1.66205
1.64163
1.61983
1.59732
1.57529
1.55535
1.53772
1.52193
1.50705
1.49429
1.48705
1.47824
1.46499
1.45042
1.43571
1.42124
1.40811
1.3967
1.38674
1.37778
1.36828
1.35681
1.34285
1.32751
1.31319
1.30152
1.29245
1.28497
1.27813
1.27133
1.26427
1.25625
1.24523
1.22846
1.21105
1.20277
1.19789
1.193
1.18747
1.18109
1.17356
1.16356
1.14936
1.13401
1.12433
1.11934
1.11552
1.11185
1.10793
1.10382
1.09823
1.09249
1.08431
1.08122
1.11947
1
1
1
1
1
1.00065
2.14379
2.89907
2.81165
2.7165
2.64699
2.58526
2.53746
2.49008
2.44132
2.39942
2.35953
2.32529
2.29132
2.25487
2.2176
2.18171
2.1467
2.11114
2.07452
2.03724
1.99995
1.96354
1.92999
1.90185
1.87912
1.85978
1.8416
1.82296
1.80286
1.78105
1.75858
1.73752
1.71876
1.70057
1.68195
1.6627
1.64184
1.61884
1.59505
1.57281
1.55337
1.53677
1.52265
1.51039
1.49882
1.48474
1.46961
1.45587
1.44174
1.42626
1.41032
1.39635
1.3855
1.37644
1.36765
1.35812
1.34691
1.3332
1.31742
1.30209
1.28988
1.2811
1.27434
1.26806
1.26149
1.25452
1.2463
1.23451
1.21635
1.20027
1.19385
1.18938
1.1845
1.17892
1.17235
1.16494
1.15482
1.13993
1.12478
1.11637
1.11177
1.10788
1.10396
1.09947
1.09478
1.08891
1.08178
1.07258
1.05827
1.04848
)
;

boundaryField
{
    inlet
    {
        type            fixedValue;
        value           uniform 1;
    }
    outlet
    {
        type            inletOutlet;
        inletValue      uniform 1;
        value           nonuniform List<scalar> 
32
(
1.92652
1.92345
1.91522
1.90031
1.87706
1.8526
1.83064
1.81255
1.79848
1.77348
1.74866
1.72456
1.70395
1.68478
1.66488
1.64491
1.62455
1.60405
1.58507
1.56491
1.54953
1.53419
1.51015
1.49553
1.48841
1.47804
1.45465
1.43811
1.40278
1.28128
1.11594
1.04716
)
;
    }
    bottom
    {
        type            symmetryPlane;
    }
    top
    {
        type            symmetryPlane;
    }
    obstacle
    {
        type            zeroGradient;
    }
    defaultFaces
    {
        type            empty;
    }
}


// ************************************************************************* //
