/*--------------------------------*- C++ -*----------------------------------*\
  =========                 |
  \\      /  F ield         | OpenFOAM: The Open Source CFD Toolbox
   \\    /   O peration     | Website:  https://openfoam.org
    \\  /    A nd           | Version:  7
     \\/     M anipulation  |
\*---------------------------------------------------------------------------*/
FoamFile
{
    version     2.0;
    format      ascii;
    class       volScalarField;
    location    "0.4";
    object      rho;
}
// * * * * * * * * * * * * * * * * * * * * * * * * * * * * * * * * * * * * * //

dimensions      [1 -3 0 0 0 0 0];

internalField   nonuniform List<scalar> 
64512
(
1.40001
1.40001
1.40001
1.40001
1.40001
1.40001
1.40001
1.40001
1.40001
1.40001
1.40001
1.40001
1.40001
1.40001
1.40001
1.40001
1.40001
1.40001
1.40001
1.40001
1.40001
1.40001
1.40001
1.40001
1.40001
1.40001
1.40001
1.40001
1.40001
1.40001
1.40001
1.40001
1.40001
1.40001
1.40001
1.40001
1.40001
1.40001
1.40001
1.40001
1.40001
1.40001
1.40001
1.40001
1.40001
1.40001
1.40001
1.40001
1.40001
1.40001
1.40001
1.40001
1.40001
1.40001
1.40001
1.40001
1.40001
1.40001
1.40001
1.40001
1.40001
1.40001
1.40001
2.97729
5.4182
5.65858
5.64751
5.6263
5.58538
5.56106
5.56111
5.5852
5.62531
5.66608
5.68996
5.69099
5.68089
5.67649
5.67619
5.65709
5.59793
5.50741
5.4271
5.37406
5.33499
5.27805
5.20465
5.13321
5.07145
5.02305
4.99327
4.97488
4.95248
4.92383
4.89643
4.90797
1.40001
1.40001
1.40001
1.40001
1.40001
1.40001
1.40001
1.40001
1.40001
1.40001
1.40001
1.40001
1.40001
1.40001
1.40001
1.40001
1.40001
1.40001
1.40001
1.40001
1.40001
1.40001
1.40001
1.40001
1.40001
1.40001
1.40001
1.40001
1.40001
1.40001
1.40001
1.40001
1.40001
1.40001
1.40001
1.40001
1.40001
1.40001
1.40001
1.40001
1.40001
1.40001
1.40001
1.40001
1.40001
1.40001
1.40001
1.40001
1.40001
1.40001
1.40001
1.40001
1.40001
1.40001
1.40001
1.40001
1.40001
1.40001
1.40001
1.40001
1.40001
1.40001
1.40001
2.95655
5.40833
5.65407
5.64418
5.62223
5.58238
5.56029
5.56259
5.58817
5.62784
5.66729
5.68996
5.69041
5.68033
5.67589
5.67508
5.65541
5.59578
5.50561
5.4252
5.37283
5.33323
5.27648
5.20384
5.13296
5.07071
5.02181
4.99114
4.97239
4.95044
4.92289
4.89668
4.90845
1.40001
1.40001
1.40001
1.40001
1.40001
1.40001
1.40001
1.40001
1.40001
1.40001
1.40001
1.40001
1.40001
1.40001
1.40001
1.40001
1.40001
1.40001
1.40001
1.40001
1.40001
1.40001
1.40001
1.40001
1.40001
1.40001
1.40001
1.40001
1.40001
1.40001
1.40001
1.40001
1.40001
1.40001
1.40001
1.40001
1.40001
1.40001
1.40001
1.40001
1.40001
1.40001
1.40001
1.40001
1.40001
1.40001
1.40001
1.40001
1.40001
1.40001
1.40001
1.40001
1.40001
1.40001
1.40001
1.40001
1.40001
1.40001
1.40001
1.40001
1.40001
1.40001
1.40001
2.91163
5.39671
5.64978
5.6375
5.6147
5.57695
5.55835
5.56392
5.59169
5.63104
5.66903
5.69022
5.68947
5.67879
5.67402
5.67272
5.65256
5.59242
5.50225
5.42154
5.36941
5.32971
5.27356
5.20196
5.13198
5.06929
5.01943
4.98738
4.9682
4.94716
4.92127
4.89679
4.90912
1.40001
1.40001
1.40001
1.40001
1.40001
1.40001
1.40001
1.40001
1.40001
1.40001
1.40001
1.40001
1.40001
1.40001
1.40001
1.40001
1.40001
1.40001
1.40001
1.40001
1.40001
1.40001
1.40001
1.40001
1.40001
1.40001
1.40001
1.40001
1.40001
1.40001
1.40001
1.40001
1.40001
1.40001
1.40001
1.40001
1.40001
1.40001
1.40001
1.40001
1.40001
1.40001
1.40001
1.40001
1.40001
1.40001
1.40001
1.40001
1.40001
1.40001
1.40001
1.40001
1.40001
1.40001
1.40001
1.40001
1.40001
1.40001
1.40001
1.40001
1.40001
1.40001
1.40001
2.84767
5.37942
5.64539
5.62901
5.6049
5.56981
5.55604
5.56599
5.59631
5.63511
5.67127
5.69069
5.68833
5.67662
5.6713
5.66954
5.64898
5.58841
5.49843
5.41787
5.36708
5.32834
5.27279
5.20173
5.13172
5.06781
5.01614
4.98192
4.96214
4.94275
4.91945
4.89679
4.91079
1.40001
1.40001
1.40001
1.40001
1.40001
1.40001
1.40001
1.40001
1.40001
1.40001
1.40001
1.40001
1.40001
1.40001
1.40001
1.40001
1.40001
1.40001
1.40001
1.40001
1.40001
1.40001
1.40001
1.40001
1.40001
1.40001
1.40001
1.40001
1.40001
1.40001
1.40001
1.40001
1.40001
1.40001
1.40001
1.40001
1.40001
1.40001
1.40001
1.40001
1.40001
1.40001
1.40001
1.40001
1.40001
1.40001
1.40001
1.40001
1.40001
1.40001
1.40001
1.40001
1.40001
1.40001
1.40001
1.40001
1.40001
1.40001
1.40001
1.40001
1.40001
1.40001
1.40001
2.76449
5.35095
5.64164
5.61929
5.59311
5.56106
5.55368
5.56927
5.60212
5.64006
5.67428
5.69175
5.6873
5.67404
5.66789
5.66568
5.6448
5.58392
5.49442
5.41459
5.36571
5.32889
5.27433
5.20348
5.13234
5.06677
5.01246
4.97528
4.95454
4.93738
4.91754
4.89675
4.91302
1.40001
1.40001
1.40001
1.40001
1.40001
1.40001
1.40001
1.40001
1.40001
1.40001
1.40001
1.40001
1.40001
1.40001
1.40001
1.40001
1.40001
1.40001
1.40001
1.40001
1.40001
1.40001
1.40001
1.40001
1.40001
1.40001
1.40001
1.40001
1.40001
1.40001
1.40001
1.40001
1.40001
1.40001
1.40001
1.40001
1.40001
1.40001
1.40001
1.40001
1.40001
1.40001
1.40001
1.40001
1.40001
1.40001
1.40001
1.40001
1.40001
1.40001
1.40001
1.40001
1.40001
1.40001
1.40001
1.40001
1.40001
1.40001
1.40001
1.40001
1.40001
1.40001
1.40001
2.66134
5.31018
5.6388
5.60719
5.57797
5.5508
5.55247
5.57549
5.60975
5.64605
5.67773
5.69272
5.68581
5.67073
5.66357
5.66092
5.63977
5.57882
5.49042
5.41221
5.36557
5.33138
5.27841
5.20753
5.13433
5.06646
5.00855
4.96743
4.9452
4.93079
4.91534
4.89684
4.91541
1.40001
1.40001
1.40001
1.40001
1.40001
1.40001
1.40001
1.40001
1.40001
1.40001
1.40001
1.40001
1.40001
1.40001
1.40001
1.40001
1.40001
1.40001
1.40001
1.40001
1.40001
1.40001
1.40001
1.40001
1.40001
1.40001
1.40001
1.40001
1.40001
1.40001
1.40001
1.40001
1.40001
1.40001
1.40001
1.40001
1.40001
1.40001
1.40001
1.40001
1.40001
1.40001
1.40001
1.40001
1.40001
1.40001
1.40001
1.40001
1.40001
1.40001
1.40001
1.40001
1.40001
1.40001
1.40001
1.40001
1.40001
1.40001
1.40001
1.40001
1.40001
1.40001
1.40001
2.5397
5.25374
5.63574
5.59157
5.56037
5.54199
5.55426
5.58431
5.61853
5.65255
5.681
5.69295
5.68341
5.66651
5.65825
5.65503
5.63354
5.57285
5.48628
5.41079
5.36739
5.33697
5.28593
5.21449
5.13819
5.06662
5.00413
4.95827
4.93423
4.92319
4.913
4.89715
4.91816
1.40001
1.40001
1.40001
1.40001
1.40001
1.40001
1.40001
1.40001
1.40001
1.40001
1.40001
1.40001
1.40001
1.40001
1.40001
1.40001
1.40001
1.40001
1.40001
1.40001
1.40001
1.40001
1.40001
1.40001
1.40001
1.40001
1.40001
1.40001
1.40001
1.40001
1.40001
1.40001
1.40001
1.40001
1.40001
1.40001
1.40001
1.40001
1.40001
1.40001
1.40001
1.40001
1.40001
1.40001
1.40001
1.40001
1.40001
1.40001
1.40001
1.40001
1.40001
1.40001
1.40001
1.40001
1.40001
1.40001
1.40001
1.40001
1.40001
1.40001
1.40001
1.40001
1.40001
2.39977
5.17711
5.63136
5.57211
5.5426
5.53726
5.56077
5.59544
5.62828
5.65914
5.68327
5.69158
5.67978
5.66141
5.65194
5.6478
5.62582
5.5659
5.48218
5.41078
5.37126
5.34492
5.29582
5.22326
5.14306
5.06691
4.99916
4.94798
4.92184
4.91468
4.91043
4.89741
4.92119
1.40001
1.40001
1.40001
1.40001
1.40001
1.40001
1.40001
1.40001
1.40001
1.40001
1.40001
1.40001
1.40001
1.40001
1.40001
1.40001
1.40001
1.40001
1.40001
1.40001
1.40001
1.40001
1.40001
1.40001
1.40001
1.40001
1.40001
1.40001
1.40001
1.40001
1.40001
1.40001
1.40001
1.40001
1.40001
1.40001
1.40001
1.40001
1.40001
1.40001
1.40001
1.40001
1.40001
1.40001
1.40001
1.40001
1.40001
1.40001
1.40001
1.40001
1.40001
1.40001
1.40001
1.40001
1.40001
1.40001
1.40001
1.40001
1.40001
1.40001
1.40001
1.40001
1.40001
2.23802
5.07955
5.62594
5.54966
5.52942
5.53821
5.57226
5.60803
5.63831
5.66466
5.68358
5.68808
5.67504
5.65574
5.64472
5.63902
5.61626
5.55783
5.47832
5.41245
5.3765
5.35377
5.30643
5.2326
5.14828
5.06707
4.99366
4.93688
4.90832
4.90534
4.90747
4.89744
4.92438
1.40001
1.40001
1.40001
1.40001
1.40001
1.40001
1.40001
1.40001
1.40001
1.40001
1.40001
1.40001
1.40001
1.40001
1.40001
1.40001
1.40001
1.40001
1.40001
1.40001
1.40001
1.40001
1.40001
1.40001
1.40001
1.40001
1.40001
1.40001
1.40001
1.40001
1.40001
1.40001
1.40001
1.40001
1.40001
1.40001
1.40001
1.40001
1.40001
1.40001
1.40001
1.40001
1.40001
1.40001
1.40001
1.40001
1.40001
1.40001
1.40001
1.40001
1.40001
1.40001
1.40001
1.40001
1.40001
1.40001
1.40001
1.40001
1.40001
1.40001
1.40001
1.40001
1.40001
2.05994
4.95501
5.61213
5.52613
5.52393
5.54728
5.58722
5.6213
5.6473
5.66759
5.68089
5.68261
5.66959
5.6498
5.63674
5.6286
5.60472
5.54878
5.47526
5.41606
5.38271
5.36245
5.31655
5.24158
5.15335
5.06694
4.98767
4.92535
4.89378
4.89486
4.90415
4.89736
4.9276
1.40001
1.40001
1.40001
1.40001
1.40001
1.40001
1.40001
1.40001
1.40001
1.40001
1.40001
1.40001
1.40001
1.40001
1.40001
1.40001
1.40001
1.40001
1.40001
1.40001
1.40001
1.40001
1.40001
1.40001
1.40001
1.40001
1.40001
1.40001
1.40001
1.40001
1.40001
1.40001
1.40001
1.40001
1.40001
1.40001
1.40001
1.40001
1.40001
1.40001
1.40001
1.40001
1.40001
1.40001
1.40001
1.40001
1.40001
1.40001
1.40001
1.40001
1.40001
1.40001
1.40001
1.40001
1.40001
1.40001
1.40001
1.40001
1.40001
1.40001
1.40001
1.40001
1.40001
1.86734
4.78847
5.58155
5.51202
5.52646
5.56394
5.60355
5.6337
5.65303
5.66648
5.67483
5.67567
5.66379
5.64385
5.62813
5.61648
5.59118
5.53913
5.47362
5.42174
5.38963
5.37015
5.32537
5.2496
5.15793
5.06639
4.98131
4.91356
4.87863
4.88326
4.90006
4.89721
4.93072
1.40001
1.40001
1.40001
1.40001
1.40001
1.40001
1.40001
1.40001
1.40001
1.40001
1.40001
1.40001
1.40001
1.40001
1.40001
1.40001
1.40001
1.40001
1.40001
1.40001
1.40001
1.40001
1.40001
1.40001
1.40001
1.40001
1.40001
1.40001
1.40001
1.40001
1.40001
1.40001
1.40001
1.40001
1.40001
1.40001
1.40001
1.40001
1.40001
1.40001
1.40001
1.40001
1.40001
1.40001
1.40001
1.40001
1.40001
1.40001
1.40001
1.40001
1.40001
1.40001
1.40001
1.40001
1.40001
1.40001
1.40001
1.40001
1.40001
1.40001
1.40001
1.40001
1.40001
1.67154
4.55937
5.548
5.51529
5.54124
5.58346
5.6185
5.64176
5.65381
5.66096
5.66654
5.66797
5.65787
5.6379
5.61877
5.60238
5.5758
5.52966
5.47432
5.42937
5.39699
5.37641
5.33235
5.25629
5.16189
5.06549
4.97471
4.90173
4.86322
4.87054
4.89493
4.89689
4.93341
1.40001
1.40001
1.40001
1.40001
1.40001
1.40001
1.40001
1.40001
1.40001
1.40001
1.40001
1.40001
1.40001
1.40001
1.40001
1.40001
1.40001
1.40001
1.40001
1.40001
1.40001
1.40001
1.40001
1.40001
1.40001
1.40001
1.40001
1.40001
1.40001
1.40001
1.40001
1.40001
1.40001
1.40001
1.40001
1.40001
1.40001
1.40001
1.40001
1.40001
1.40001
1.40001
1.40001
1.40001
1.40001
1.40001
1.40001
1.40001
1.40001
1.40001
1.40001
1.40001
1.40001
1.40001
1.40001
1.40001
1.40001
1.40001
1.40001
1.40001
1.40001
1.40001
1.40001
1.49418
4.26175
5.53073
5.53187
5.56115
5.59911
5.62857
5.64414
5.64961
5.65245
5.65727
5.66006
5.65187
5.63162
5.60819
5.58585
5.55908
5.52167
5.47815
5.43854
5.40438
5.38096
5.33709
5.26134
5.16506
5.06422
4.96788
4.89
4.84797
4.85702
4.88868
4.89618
4.93522
1.40001
1.40001
1.40001
1.40001
1.40001
1.40001
1.40001
1.40001
1.40001
1.40001
1.40001
1.40001
1.40001
1.40001
1.40001
1.40001
1.40001
1.40001
1.40001
1.40001
1.40001
1.40001
1.40001
1.40001
1.40001
1.40001
1.40001
1.40001
1.40001
1.40001
1.40001
1.40001
1.40001
1.40001
1.40001
1.40001
1.40001
1.40001
1.40001
1.40001
1.40001
1.40001
1.40001
1.40001
1.40001
1.40001
1.40001
1.40001
1.40001
1.40001
1.40001
1.40001
1.40001
1.40001
1.40001
1.40001
1.40001
1.40001
1.40001
1.40001
1.40001
1.40001
1.40001
1.40288
3.96183
5.50489
5.53996
5.57405
5.60728
5.63146
5.64129
5.6419
5.64262
5.64785
5.65236
5.64577
5.62442
5.5956
5.56666
5.54211
5.51674
5.48499
5.44877
5.41139
5.38346
5.33946
5.26453
5.16731
5.06268
4.96096
4.87846
4.83345
4.8431
4.88079
4.89478
4.9358
1.40001
1.40001
1.40001
1.40001
1.40001
1.40001
1.40001
1.40001
1.40001
1.40001
1.40001
1.40001
1.40001
1.40001
1.40001
1.40001
1.40001
1.40001
1.40001
1.40001
1.40001
1.40001
1.40001
1.40001
1.40001
1.40001
1.40001
1.40001
1.40001
1.40001
1.40001
1.40001
1.40001
1.40001
1.40001
1.40001
1.40001
1.40001
1.40001
1.40001
1.40001
1.40001
1.40001
1.40001
1.40001
1.40001
1.40001
1.40001
1.40001
1.40001
1.40001
1.40001
1.40001
1.40001
1.40001
1.40001
1.40001
1.40001
1.40001
1.40001
1.40001
1.40001
1.40001
1.40001
3.62821
5.44633
5.53726
5.57721
5.61039
5.62935
5.6343
5.63272
5.6326
5.63922
5.64536
5.63923
5.6152
5.57973
5.54543
5.52698
5.5155
5.49419
5.4595
5.41759
5.38387
5.33926
5.2657
5.16845
5.06082
4.95406
4.86722
4.82019
4.82937
4.87067
4.89223
4.93491
1.40001
1.40001
1.40001
1.40001
1.40001
1.40001
1.40001
1.40001
1.40001
1.40001
1.40001
1.40001
1.40001
1.40001
1.40001
1.40001
1.40001
1.40001
1.40001
1.40001
1.40001
1.40001
1.40001
1.40001
1.40001
1.40001
1.40001
1.40001
1.40001
1.40001
1.40001
1.40001
1.40001
1.40001
1.40001
1.40001
1.40001
1.40001
1.40001
1.40001
1.40001
1.40001
1.40001
1.40001
1.40001
1.40001
1.40001
1.40001
1.40001
1.40001
1.40001
1.40001
1.40001
1.40001
1.40001
1.40001
1.40001
1.40001
1.40001
1.40001
1.40001
1.40001
1.40001
1.40001
3.28684
5.35658
5.53578
5.57696
5.61131
5.62339
5.62436
5.62316
5.62419
5.63194
5.63868
5.63109
5.60259
5.55992
5.52433
5.51621
5.51747
5.50457
5.47005
5.42249
5.3821
5.33627
5.26468
5.16842
5.05858
4.94728
4.8565
4.80862
4.81652
4.85833
4.88775
4.93139
1.40001
1.40001
1.40001
1.40001
1.40001
1.40001
1.40001
1.40001
1.40001
1.40001
1.40001
1.40001
1.40001
1.40001
1.40001
1.40001
1.40001
1.40001
1.40001
1.40001
1.40001
1.40001
1.40001
1.40001
1.40001
1.40001
1.40001
1.40001
1.40001
1.40001
1.40001
1.40001
1.40001
1.40001
1.40001
1.40001
1.40001
1.40001
1.40001
1.40001
1.40001
1.40001
1.40001
1.40001
1.40001
1.40001
1.40001
1.40001
1.40001
1.40001
1.40001
1.40001
1.40001
1.40001
1.40001
1.40001
1.40001
1.40001
1.40001
1.40001
1.40001
1.40001
1.40001
1.40001
2.94363
5.25769
5.54643
5.57489
5.60752
5.61275
5.61381
5.6152
5.61851
5.62557
5.63046
5.61939
5.5855
5.53868
5.5061
5.50976
5.52231
5.5151
5.47951
5.42546
5.37783
5.33031
5.2613
5.16705
5.05574
4.94049
4.84653
4.7988
4.80466
4.84503
4.88041
4.92422
1.40001
1.40001
1.40001
1.40001
1.40001
1.40001
1.40001
1.40001
1.40001
1.40001
1.40001
1.40001
1.40001
1.40001
1.40001
1.40001
1.40001
1.40001
1.40001
1.40001
1.40001
1.40001
1.40001
1.40001
1.40001
1.40001
1.40001
1.40001
1.40001
1.40001
1.40001
1.40001
1.40001
1.40001
1.40001
1.40001
1.40001
1.40001
1.40001
1.40001
1.40001
1.40001
1.40001
1.40001
1.40001
1.40001
1.40001
1.40001
1.40001
1.40001
1.40001
1.40001
1.40001
1.40001
1.40001
1.40001
1.40001
1.40001
1.40001
1.40001
1.40001
1.40001
1.40001
1.40001
2.57723
5.15134
5.57626
5.5727
5.59919
5.60185
5.60578
5.60957
5.61407
5.61771
5.61772
5.60214
5.56474
5.51994
5.49484
5.50702
5.52755
5.5242
5.48693
5.42622
5.37121
5.32179
5.25599
5.16445
5.05226
4.93383
4.83777
4.7906
4.79368
4.83073
4.86974
4.91266
1.40001
1.40001
1.40001
1.40001
1.40001
1.40001
1.40001
1.40001
1.40001
1.40001
1.40001
1.40001
1.40001
1.40001
1.40001
1.40001
1.40001
1.40001
1.40001
1.40001
1.40001
1.40001
1.40001
1.40001
1.40001
1.40001
1.40001
1.40001
1.40001
1.40001
1.40001
1.40001
1.40001
1.40001
1.40001
1.40001
1.40001
1.40001
1.40001
1.40001
1.40001
1.40001
1.40001
1.40001
1.40001
1.40001
1.40001
1.40001
1.40001
1.40001
1.40001
1.40001
1.40001
1.40001
1.40001
1.40001
1.40001
1.40001
1.40001
1.40001
1.40001
1.40001
1.40001
1.40001
2.18887
5.01803
5.62805
5.5789
5.59061
5.58994
5.59843
5.60477
5.60709
5.60497
5.59854
5.58061
5.54541
5.50813
5.49102
5.507
5.53085
5.53001
5.49127
5.42474
5.36253
5.31101
5.24867
5.16015
5.04757
4.92737
4.83082
4.78337
4.78321
4.81556
4.85561
4.89694
1.40001
1.40001
1.40001
1.40001
1.40001
1.40001
1.40001
1.40001
1.40001
1.40001
1.40001
1.40001
1.40001
1.40001
1.40001
1.40001
1.40001
1.40001
1.40001
1.40001
1.40001
1.40001
1.40001
1.40001
1.40001
1.40001
1.40001
1.40001
1.40001
1.40001
1.40001
1.40001
1.40001
1.40001
1.40001
1.40001
1.40001
1.40001
1.40001
1.40001
1.40001
1.40001
1.40001
1.40001
1.40001
1.40001
1.40001
1.40001
1.40001
1.40001
1.40001
1.40001
1.40001
1.40001
1.40001
1.40001
1.40001
1.40001
1.40001
1.40001
1.40001
1.40001
1.40001
1.40001
1.82054
4.77122
5.64998
5.57088
5.57185
5.58068
5.59188
5.59727
5.59326
5.58497
5.57495
5.55981
5.53318
5.50491
5.49292
5.50756
5.53079
5.53165
5.4922
5.42116
5.35243
5.2984
5.23918
5.15367
5.04143
4.92148
4.8262
4.77709
4.77307
4.79922
4.83742
4.87653
1.40001
1.40001
1.40001
1.40001
1.40001
1.40001
1.40001
1.40001
1.40001
1.40001
1.40001
1.40001
1.40001
1.40001
1.40001
1.40001
1.40001
1.40001
1.40001
1.40001
1.40001
1.40001
1.40001
1.40001
1.40001
1.40001
1.40001
1.40001
1.40001
1.40001
1.40001
1.40001
1.40001
1.40001
1.40001
1.40001
1.40001
1.40001
1.40001
1.40001
1.40001
1.40001
1.40001
1.40001
1.40001
1.40001
1.40001
1.40001
1.40001
1.40001
1.40001
1.40001
1.40001
1.40001
1.40001
1.40001
1.40001
1.40001
1.40001
1.40001
1.40001
1.40001
1.40001
1.40001
1.48628
4.31332
5.61418
5.5551
5.55626
5.57232
5.5829
5.58328
5.57259
5.55985
5.55133
5.54462
5.52996
5.50945
5.49805
5.50664
5.5259
5.52832
5.48949
5.41585
5.3416
5.28414
5.22685
5.14413
5.0334
4.91616
4.82355
4.77185
4.76296
4.78131
4.81511
4.85167
1.40001
1.40001
1.40001
1.40001
1.40001
1.40001
1.40001
1.40001
1.40001
1.40001
1.40001
1.40001
1.40001
1.40001
1.40001
1.40001
1.40001
1.40001
1.40001
1.40001
1.40001
1.40001
1.40001
1.40001
1.40001
1.40001
1.40001
1.40001
1.40001
1.40001
1.40001
1.40001
1.40001
1.40001
1.40001
1.40001
1.40001
1.40001
1.40001
1.40001
1.40001
1.40001
1.40001
1.40001
1.40001
1.40001
1.40001
1.40001
1.40001
1.40001
1.40001
1.40001
1.40001
1.40001
1.40001
1.40001
1.40001
1.40001
1.40001
1.40001
1.40001
1.40001
1.40001
1.40001
1.40162
3.68286
5.50075
5.5407
5.55366
5.56683
5.56751
5.56073
5.5478
5.53689
5.53392
5.53714
5.53362
5.51878
5.50252
5.50245
5.51555
5.51887
5.48253
5.4094
5.33081
5.26823
5.21083
5.13101
5.02395
4.91219
4.82302
4.76753
4.75188
4.76102
4.78807
4.82158
1.40001
1.40001
1.40001
1.40001
1.40001
1.40001
1.40001
1.40001
1.40001
1.40001
1.40001
1.40001
1.40001
1.40001
1.40001
1.40001
1.40001
1.40001
1.40001
1.40001
1.40001
1.40001
1.40001
1.40001
1.40001
1.40001
1.40001
1.40001
1.40001
1.40001
1.40001
1.40001
1.40001
1.40001
1.40001
1.40001
1.40001
1.40001
1.40001
1.40001
1.40001
1.40001
1.40001
1.40001
1.40001
1.40001
1.40001
1.40001
1.40001
1.40001
1.40001
1.40001
1.40001
1.40001
1.40001
1.40001
1.40001
1.40001
1.40001
1.40001
1.40001
1.40001
1.40001
1.40001
1.40001
3.05016
5.36663
5.5469
5.55086
5.55001
5.54462
5.53589
5.52667
5.52124
5.52528
5.53614
5.54062
5.52719
5.50409
5.4942
5.50071
5.50396
5.47232
5.4026
5.32059
5.25055
5.19006
5.11347
5.0133
4.90941
4.82368
4.76364
4.73801
4.7372
4.75704
4.78665
1.40001
1.40001
1.40001
1.40001
1.40001
1.40001
1.40001
1.40001
1.40001
1.40001
1.40001
1.40001
1.40001
1.40001
1.40001
1.40001
1.40001
1.40001
1.40001
1.40001
1.40001
1.40001
1.40001
1.40001
1.40001
1.40001
1.40001
1.40001
1.40001
1.40001
1.40001
1.40001
1.40001
1.40001
1.40001
1.40001
1.40001
1.40001
1.40001
1.40001
1.40001
1.40001
1.40001
1.40001
1.40001
1.40001
1.40001
1.40001
1.40001
1.40001
1.40001
1.40001
1.40001
1.40001
1.40001
1.40001
1.40001
1.40001
1.40001
1.40001
1.40001
1.40001
1.40001
1.40001
1.40001
2.5052
5.19396
5.55045
5.54204
5.52869
5.52144
5.51621
5.51446
5.51497
5.5236
5.53786
5.5452
5.53141
5.50281
5.48275
5.48198
5.48505
5.45991
5.39539
5.31021
5.2303
5.16377
5.09152
5.00262
4.90871
4.82501
4.7593
4.72072
4.70908
4.72133
4.74498
1.40001
1.40001
1.40001
1.40001
1.40001
1.40001
1.40001
1.40001
1.40001
1.40001
1.40001
1.40001
1.40001
1.40001
1.40001
1.40001
1.40001
1.40001
1.40001
1.40001
1.40001
1.40001
1.40001
1.40001
1.40001
1.40001
1.40001
1.40001
1.40001
1.40001
1.40001
1.40001
1.40001
1.40001
1.40001
1.40001
1.40001
1.40001
1.40001
1.40001
1.40001
1.40001
1.40001
1.40001
1.40001
1.40001
1.40001
1.40001
1.40001
1.40001
1.40001
1.40001
1.40001
1.40001
1.40001
1.40001
1.40001
1.40001
1.40001
1.40001
1.40001
1.40001
1.40001
1.40001
1.40001
2.04791
4.96678
5.55592
5.52876
5.50893
5.50269
5.50566
5.51098
5.51721
5.52615
5.53827
5.54413
5.52979
5.49774
5.4688
5.46085
5.46392
5.44587
5.38704
5.2985
5.20698
5.13262
5.06628
4.99214
4.90874
4.82513
4.75157
4.69925
4.67641
4.68064
4.69771
1.40001
1.40001
1.40001
1.40001
1.40001
1.40001
1.40001
1.40001
1.40001
1.40001
1.40001
1.40001
1.40001
1.40001
1.40001
1.40001
1.40001
1.40001
1.40001
1.40001
1.40001
1.40001
1.40001
1.40001
1.40001
1.40001
1.40001
1.40001
1.40001
1.40001
1.40001
1.40001
1.40001
1.40001
1.40001
1.40001
1.40001
1.40001
1.40001
1.40001
1.40001
1.40001
1.40001
1.40001
1.40001
1.40001
1.40001
1.40001
1.40001
1.40001
1.40001
1.40001
1.40001
1.40001
1.40001
1.40001
1.40001
1.40001
1.40001
1.40001
1.40001
1.40001
1.40001
1.40001
1.40001
1.66497
4.5871
5.5429
5.50702
5.49748
5.49639
5.50554
5.51467
5.52154
5.52658
5.53323
5.53595
5.52184
5.4884
5.45325
5.43944
5.44204
5.43015
5.37603
5.28349
5.17979
5.09845
5.04003
4.98202
4.90887
4.8239
4.74053
4.67425
4.63799
4.63251
4.64207
1.40001
1.40001
1.40001
1.40001
1.40001
1.40001
1.40001
1.40001
1.40001
1.40001
1.40001
1.40001
1.40001
1.40001
1.40001
1.40001
1.40001
1.40001
1.40001
1.40001
1.40001
1.40001
1.40001
1.40001
1.40001
1.40001
1.40001
1.40001
1.40001
1.40001
1.40001
1.40001
1.40001
1.40001
1.40001
1.40001
1.40001
1.40001
1.40001
1.40001
1.40001
1.40001
1.40001
1.40001
1.40001
1.40001
1.40001
1.40001
1.40001
1.40001
1.40001
1.40001
1.40001
1.40001
1.40001
1.40001
1.40001
1.40001
1.40001
1.40001
1.40001
1.40001
1.40001
1.40001
1.40001
1.41828
3.99501
5.47812
5.48667
5.49134
5.50083
5.5141
5.52269
5.52409
5.52097
5.52018
5.5199
5.50818
5.47666
5.43843
5.41922
5.41958
5.41099
5.36
5.26375
5.15037
5.06554
5.01532
4.97044
4.90492
4.81704
4.72243
4.64188
4.5932
4.57749
4.57905
1.40001
1.40001
1.40001
1.40001
1.40001
1.40001
1.40001
1.40001
1.40001
1.40001
1.40001
1.40001
1.40001
1.40001
1.40001
1.40001
1.40001
1.40001
1.40001
1.40001
1.40001
1.40001
1.40001
1.40001
1.40001
1.40001
1.40001
1.40001
1.40001
1.40001
1.40001
1.40001
1.40001
1.40001
1.40001
1.40001
1.40001
1.40001
1.40001
1.40001
1.40001
1.40001
1.40001
1.40001
1.40001
1.40001
1.40001
1.40001
1.40001
1.40001
1.40001
1.40001
1.40001
1.40001
1.40001
1.40001
1.40001
1.40001
1.40001
1.40001
1.40001
1.40001
1.40001
1.40001
1.40001
1.40015
3.22453
5.37663
5.49647
5.50036
5.50889
5.52031
5.52581
5.52131
5.51076
5.50299
5.5003
5.49174
5.4639
5.42462
5.39912
5.39471
5.38628
5.33761
5.23969
5.12254
5.03758
4.99212
4.95447
4.89409
4.80418
4.69962
4.6045
4.54109
4.51104
4.4994
1.40001
1.40001
1.40001
1.40001
1.40001
1.40001
1.40001
1.40001
1.40001
1.40001
1.40001
1.40001
1.40001
1.40001
1.40001
1.40001
1.40001
1.40001
1.40001
1.40001
1.40001
1.40001
1.40001
1.40001
1.40001
1.40001
1.40001
1.40001
1.40001
1.40001
1.40001
1.40001
1.40001
1.40001
1.40001
1.40001
1.40001
1.40001
1.40001
1.40001
1.40001
1.40001
1.40001
1.40001
1.40001
1.40001
1.40001
1.40001
1.40001
1.40001
1.40001
1.40001
1.40001
1.40001
1.40001
1.40001
1.40001
1.40001
1.40001
1.40001
1.40001
1.40001
1.40001
1.40001
1.40001
1.40001
2.46384
5.19567
5.53731
5.52677
5.52031
5.51792
5.5175
5.51108
5.49837
5.48657
5.48053
5.4731
5.44944
5.41068
5.37799
5.36587
5.35459
5.30853
5.21348
5.10069
5.01601
4.96878
4.93162
4.87346
4.7813
4.66586
4.553
4.47276
4.42809
4.40703
1.40001
1.40001
1.40001
1.40001
1.40001
1.40001
1.40001
1.40001
1.40001
1.40001
1.40001
1.40001
1.40001
1.40001
1.40001
1.40001
1.40001
1.40001
1.40001
1.40001
1.40001
1.40001
1.40001
1.40001
1.40001
1.40001
1.40001
1.40001
1.40001
1.40001
1.40001
1.40001
1.40001
1.40001
1.40001
1.40001
1.40001
1.40001
1.40001
1.40001
1.40001
1.40001
1.40001
1.40001
1.40001
1.40001
1.40001
1.40001
1.40001
1.40001
1.40001
1.40001
1.40001
1.40001
1.40001
1.40001
1.40001
1.40001
1.40001
1.40001
1.40001
1.40001
1.40001
1.40001
1.40001
1.40001
1.86815
4.84195
5.55419
5.52956
5.52355
5.51378
5.50712
5.49981
5.48542
5.46979
5.46001
5.45289
5.43378
5.39622
5.35509
5.33145
5.3154
5.27428
5.18947
5.08684
4.99958
4.94331
4.90037
4.84115
4.74726
4.62347
4.49431
4.39473
4.3262
4.27747
1.40001
1.40001
1.40001
1.40001
1.40001
1.40001
1.40001
1.40001
1.40001
1.40001
1.40001
1.40001
1.40001
1.40001
1.40001
1.40001
1.40001
1.40001
1.40001
1.40001
1.40001
1.40001
1.40001
1.40001
1.40001
1.40001
1.40001
1.40001
1.40001
1.40001
1.40001
1.40001
1.40001
1.40001
1.40001
1.40001
1.40001
1.40001
1.40001
1.40001
1.40001
1.40001
1.40001
1.40001
1.40001
1.40001
1.40001
1.40001
1.40001
1.40001
1.40001
1.40001
1.40001
1.40001
1.40001
1.40001
1.40001
1.40001
1.40001
1.40001
1.40001
1.40001
1.40001
1.40001
1.40001
1.40001
1.44845
4.22192
5.47023
5.50147
5.50011
5.49211
5.49177
5.49112
5.47565
5.45326
5.43691
5.42922
5.4154
5.3798
5.33023
5.29276
5.27119
5.23821
5.17046
5.07863
4.98587
4.91475
4.8612
4.79777
4.70073
4.56583
4.41437
4.27937
4.17471
4.10503
1.40001
1.40001
1.40001
1.40001
1.40001
1.40001
1.40001
1.40001
1.40001
1.40001
1.40001
1.40001
1.40001
1.40001
1.40001
1.40001
1.40001
1.40001
1.40001
1.40001
1.40001
1.40001
1.40001
1.40001
1.40001
1.40001
1.40001
1.40001
1.40001
1.40001
1.40001
1.40001
1.40001
1.40001
1.40001
1.40001
1.40001
1.40001
1.40001
1.40001
1.40001
1.40001
1.40001
1.40001
1.40001
1.40001
1.40001
1.40001
1.40001
1.40001
1.40001
1.40001
1.40001
1.40001
1.40001
1.40001
1.40001
1.40001
1.40001
1.40001
1.40001
1.40001
1.40001
1.40001
1.40001
1.40001
1.40062
3.35528
5.32487
5.48493
5.47745
5.48124
5.48482
5.48124
5.46283
5.43452
5.41225
5.40286
5.39206
5.35862
5.30367
5.2533
5.22606
5.20358
5.15517
5.07257
4.97297
4.88313
4.81445
4.74288
4.6399
4.49416
4.32207
4.15451
3.99891
3.89439
1.40001
1.40001
1.40001
1.40001
1.40001
1.40001
1.40001
1.40001
1.40001
1.40001
1.40001
1.40001
1.40001
1.40001
1.40001
1.40001
1.40001
1.40001
1.40001
1.40001
1.40001
1.40001
1.40001
1.40001
1.40001
1.40001
1.40001
1.40001
1.40001
1.40001
1.40001
1.40001
1.40001
1.40001
1.40001
1.40001
1.40001
1.40001
1.40001
1.40001
1.40001
1.40001
1.40001
1.40001
1.40001
1.40001
1.40001
1.40001
1.40001
1.40001
1.40001
1.40001
1.40001
1.40001
1.40001
1.40001
1.40001
1.40001
1.40001
1.40001
1.40001
1.40001
1.40001
1.40001
1.40001
1.40001
1.40001
2.45516
5.15587
5.50492
5.49269
5.4774
5.46863
5.46231
5.44444
5.41612
5.38775
5.37383
5.36382
5.33389
5.27715
5.21664
5.1845
5.17137
5.13947
5.06496
4.95884
4.84904
4.7608
4.67811
4.56843
4.41469
4.2175
3.98627
3.60124
2.81821
1.40001
1.40001
1.40001
1.40001
1.40001
1.40001
1.40001
1.40001
1.40001
1.40001
1.40001
1.40001
1.40001
1.40001
1.40001
1.40001
1.40001
1.40001
1.40001
1.40001
1.40001
1.40001
1.40001
1.40001
1.40001
1.40001
1.40001
1.40001
1.40001
1.40001
1.40001
1.40001
1.40001
1.40001
1.40001
1.40001
1.40001
1.40001
1.40001
1.40001
1.40001
1.40001
1.40001
1.40001
1.40001
1.40001
1.40001
1.40001
1.40001
1.40001
1.40001
1.40001
1.40001
1.40001
1.40001
1.40001
1.40001
1.40001
1.40001
1.40001
1.40001
1.40001
1.40001
1.40001
1.40001
1.40001
1.40001
1.75642
4.72981
5.49761
5.46464
5.46161
5.45305
5.44014
5.41991
5.39147
5.3624
5.34714
5.33676
5.30872
5.25311
5.18749
5.15032
5.13924
5.11769
5.05173
4.94136
4.81441
4.70358
4.60559
4.48523
4.32245
4.0997
3.79212
3.30875
2.48109
1.40001
1.40001
1.40001
1.40001
1.40001
1.40001
1.40001
1.40001
1.40001
1.40001
1.40001
1.40001
1.40001
1.40001
1.40001
1.40001
1.40001
1.40001
1.40001
1.40001
1.40001
1.40001
1.40001
1.40001
1.40001
1.40001
1.40001
1.40001
1.40001
1.40001
1.40001
1.40001
1.40001
1.40001
1.40001
1.40001
1.40001
1.40001
1.40001
1.40001
1.40001
1.40001
1.40001
1.40001
1.40001
1.40001
1.40001
1.40001
1.40001
1.40001
1.40001
1.40001
1.40001
1.40001
1.40001
1.40001
1.40001
1.40001
1.40001
1.40001
1.40001
1.40001
1.40001
1.40001
1.40001
1.40001
1.40001
1.42237
3.91585
5.38956
5.44513
5.43919
5.42986
5.41356
5.39345
5.36896
5.34187
5.32253
5.30928
5.28531
5.23586
5.16941
5.12298
5.1044
5.08667
5.03034
4.91993
4.78081
4.64755
4.53159
4.3986
4.22778
3.98102
3.64607
3.10269
2.36583
1.40001
1.40001
1.40001
1.40001
1.40001
1.40001
1.40001
1.40001
1.40001
1.40001
1.40001
1.40001
1.40001
1.40001
1.40001
1.40001
1.40001
1.40001
1.40001
1.40001
1.40001
1.40001
1.40001
1.40001
1.40001
1.40001
1.40001
1.40001
1.40001
1.40001
1.40001
1.40001
1.40001
1.40001
1.40001
1.40001
1.40001
1.40001
1.40001
1.40001
1.40001
1.40001
1.40001
1.40001
1.40001
1.40001
1.40001
1.40001
1.40001
1.40001
1.40001
1.40001
1.40001
1.40001
1.40001
1.40001
1.40001
1.40001
1.40001
1.40001
1.40001
1.40001
1.40001
1.40001
1.40001
1.40001
1.40001
1.40014
2.94879
5.2507
5.43243
5.41799
5.40712
5.39385
5.3771
5.35355
5.32496
5.30005
5.28377
5.26452
5.22282
5.15833
5.10018
5.06652
5.04586
4.99922
4.89486
4.74934
4.5975
4.46055
4.31651
4.13788
3.88084
3.51341
2.99975
2.4016
1.40001
1.40001
1.40001
1.40001
1.40001
1.40001
1.40001
1.40001
1.40001
1.40001
1.40001
1.40001
1.40001
1.40001
1.40001
1.40001
1.40001
1.40001
1.40001
1.40001
1.40001
1.40001
1.40001
1.40001
1.40001
1.40001
1.40001
1.40001
1.40001
1.40001
1.40001
1.40001
1.40001
1.40001
1.40001
1.40001
1.40001
1.40001
1.40001
1.40001
1.40001
1.40001
1.40001
1.40001
1.40001
1.40001
1.40001
1.40001
1.40001
1.40001
1.40001
1.40001
1.40001
1.40001
1.40001
1.40001
1.40001
1.40001
1.40001
1.40001
1.40001
1.40001
1.40001
1.40001
1.40001
1.40001
1.40001
1.40001
2.03672
4.94891
5.45783
5.42131
5.3985
5.37604
5.35898
5.34211
5.31682
5.28453
5.26065
5.24201
5.2088
5.14879
5.08093
5.02865
4.99807
4.95803
4.86531
4.71982
4.55753
4.40104
4.24241
4.04564
3.78832
3.42897
2.97586
2.46841
1.40001
1.40001
1.40001
1.40001
1.40001
1.40001
1.40001
1.40001
1.40001
1.40001
1.40001
1.40001
1.40001
1.40001
1.40001
1.40001
1.40001
1.40001
1.40001
1.40001
1.40001
1.40001
1.40001
1.40001
1.40001
1.40001
1.40001
1.40001
1.40001
1.40001
1.40001
1.40001
1.40001
1.40001
1.40001
1.40001
1.40001
1.40001
1.40001
1.40001
1.40001
1.40001
1.40001
1.40001
1.40001
1.40001
1.40001
1.40001
1.40001
1.40001
1.40001
1.40001
1.40001
1.40001
1.40001
1.40001
1.40001
1.40001
1.40001
1.40001
1.40001
1.40001
1.40001
1.40001
1.40001
1.40001
1.40001
1.40001
1.47104
4.2418
5.40588
5.40109
5.38964
5.36854
5.35085
5.33471
5.30869
5.27153
5.24054
5.21931
5.19268
5.13849
5.06557
4.99443
4.94622
4.9063
4.82808
4.69107
4.52924
4.35637
4.16965
3.96277
3.70711
3.38074
2.98959
2.5507
1.40001
1.40001
1.40001
1.40001
1.40001
1.40001
1.40001
1.40001
1.40001
1.40001
1.40001
1.40001
1.40001
1.40001
1.40001
1.40001
1.40001
1.40001
1.40001
1.40001
1.40001
1.40001
1.40001
1.40001
1.40001
1.40001
1.40001
1.40001
1.40001
1.40001
1.40001
1.40001