/*--------------------------------*- C++ -*----------------------------------*\
  =========                 |
  \\      /  F ield         | OpenFOAM: The Open Source CFD Toolbox
   \\    /   O peration     | Website:  https://openfoam.org
    \\  /    A nd           | Version:  7
     \\/     M anipulation  |
\*---------------------------------------------------------------------------*/
FoamFile
{
    version     2.0;
    format      ascii;
    class       volScalarField;
    location    "2.9";
    object      T;
}
// * * * * * * * * * * * * * * * * * * * * * * * * * * * * * * * * * * * * * //

dimensions      [0 0 0 1 0 0 0];

internalField   nonuniform List<scalar> 
16128
(
1
1
1
1
1
1
1
1
1
1
1
1
1
1
1
1
1
1
1
1
1
1
1
1
1.92117
2.65543
2.70941
2.72073
2.7306
2.73644
2.74023
2.74327
2.74707
2.75295
2.76164
2.77215
2.78189
2.78838
2.79123
2.79226
2.79342
2.79576
2.79934
2.80342
2.80745
2.8112
2.81423
2.81596
1
1
1
1
1
1
1
1
1
1
1
1
1
1
1
1
1
1
1
1
1
1
1
1
1.90938
2.65207
2.70894
2.72064
2.73048
2.73623
2.73993
2.74291
2.74667
2.75253
2.76122
2.77172
2.78139
2.78779
2.79056
2.79155
2.79269
2.79501
2.79855
2.80261
2.80662
2.81035
2.81333
2.81503
1
1
1
1
1
1
1
1
1
1
1
1
1
1
1
1
1
1
1
1
1
1
1
1
1.87906
2.6454
2.70711
2.71953
2.72967
2.73545
2.7391
2.742
2.74569
2.75153
2.76024
2.77079
2.78045
2.78675
2.78943
2.79037
2.7915
2.7938
2.79729
2.80126
2.80521
2.80889
2.81183
2.8135
1
1
1
1
1
1
1
1
1
1
1
1
1
1
1
1
1
1
1
1
1
1
1
1
1.83184
2.63348
2.70335
2.7173
2.72823
2.73429
2.73792
2.74066
2.74414
2.74979
2.75843
2.76904
2.77878
2.78513
2.7878
2.78873
2.78988
2.79218
2.79561
2.79946
2.80326
2.80683
2.80964
2.81122
1
1
1
1
1
1
1
1
1
1
1
1
1
1
1
1
1
1
1
1
1
1
1
1
1.7682
2.61588
2.69745
2.7137
2.72596
2.7326
2.73637
2.73895
2.74207
2.74731
2.75563
2.76618
2.77609
2.78265
2.78543
2.78639
2.78753
2.78982
2.79324
2.79703
2.80075
2.80428
2.80702
2.80855
1
1
1
1
1
1
1
1
1
1
1
1
1
1
1
1
1
1
1
1
1
1
1
1
1.68558
2.59165
2.68921
2.70827
2.7223
2.72983
2.73402
2.73655
2.73934
2.74403
2.75186
2.76227
2.77247
2.77953
2.78266
2.78372
2.78484
2.78704
2.79033
2.79398
2.79756
2.80098
2.80364
2.80514
1
1
1
1
1
1
1
1
1
1
1
1
1
1
1
1
1
1
1
1
1
1
1
1
1.58437
2.5619
2.68127
2.70168
2.7171
2.72582
2.73081
2.73354
2.73607
2.74013
2.74716
2.75709
2.76739
2.77497
2.7786
2.77988
2.78102
2.78313
2.78635
2.78998
2.79353
2.79696
2.79961
2.80114
1
1
1
1
1
1
1
1
1
1
1
1
1
1
1
1
1
1
1
1
1
1
1
1
1.46391
2.52191
2.67725
2.69389
2.70957
2.71954
2.72611
2.72976
2.73249
2.73612
2.74229
2.75146
2.76163
2.76967
2.7739
2.77548
2.77663
2.77863
2.7817
2.78522
2.78866
2.79196
2.79451
2.79596
1
1
1
1
1
1
1
1
1
1
1
1
1
1
1
1
1
1
1
1
1
1
1
1
1.31667
2.46089
2.67708
2.68539
2.69967
2.71026
2.7187
2.72412
2.72778
2.73148
2.73695
2.74519
2.75494
2.76331
2.76817
2.77011
2.77125
2.773
2.77578
2.77917
2.78256
2.78583
2.78834
2.78978
1
1
1
1
1
1
1
1
1
1
1
1
1
1
1
1
1
1
1
1
1
1
1
1
1.15164
2.3879
2.68014
2.67842
2.6886
2.6987
2.70874
2.71643
2.72167
2.72589
2.73092
2.7382
2.74726
2.75572
2.76121
2.76364
2.76486
2.76642
2.76891
2.77212
2.77541
2.77839
2.78053
2.78168
1
1
1
1
1
1
1
1
1
1
1
1
1
1
1
1
1
1
1
1
1
1
1
1
1.0082
2.31185
2.67664
2.6765
2.68283
2.69067
2.69988
2.70834
2.71489
2.7199
2.72472
2.73095
2.73896
2.74712
2.75305
2.75596
2.75723
2.75845
2.76039
2.76313
2.76608
2.76884
2.77092
2.77212
1
1
1
1
1
1
1
1
1
1
1
1
1
1
1
1
1
1
1
1
1
1
1
1
1.00004
2.20701
2.67478
2.67732
2.68277
2.68967
2.69704
2.70406
2.70982
2.7143
2.71853
2.72366
2.73029
2.73761
2.74357
2.74685
2.74816
2.74907
2.75062
2.75292
2.75531
2.75738
2.75845
2.75856
1
1
1
1
1
1
1
1
1
1
1
1
1
1
1
1
1
1
1
1
1
1
1
1
1
2.06576
2.65935
2.67506
2.6809
2.68747
2.69363
2.6997
2.705
2.70925
2.71271
2.71629
2.72118
2.72716
2.73268
2.73612
2.73748
2.73808
2.73875
2.73943
2.74026
2.74126
2.74135
2.74193
1
1
1
1
1
1
1
1
1
1
1
1
1
1
1
1
1
1
1
1
1
1
1
1
1
1.88324
2.61664
2.6657
2.67569
2.68407
2.69111
2.69696
2.70141
2.70453
2.70683
2.70921
2.71227
2.71638
2.72084
2.72401
2.72515
2.72495
2.72424
2.72355
2.72301
2.72272
2.71966
2.7139
1
1
1
1
1
1
1
1
1
1
1
1
1
1
1
1
1
1
1
1
1
1
1
1
1
1.64981
2.5325
2.6441
2.66127
2.6739
2.68397
2.69163
2.69692
2.70015
2.70181
2.70272
2.70383
2.70586
2.70865
2.7107
2.71096
2.70987
2.70759
2.70439
2.69961
2.69228
2.68334
2.67508
1
1
1
1
1
1
1
1
1
1
1
1
1
1
1
1
1
1
1
1
1
1
1
1
1
1.32869
2.41264
2.62963
2.6426
2.65832
2.6707
2.68062
2.6881
2.69297
2.69531
2.6959
2.69589
2.69621
2.69676
2.69696
2.6959
2.69312
2.68819
2.68092
2.67094
2.65883
2.64947
2.65404
1
1
1
1
1
1
1
1
1
1
1
1
1
1
1
1
1
1
1
1
1
1
1
1
1
1.03193
2.30102
2.63422
2.63243
2.63842
2.65019
2.66247
2.6731
2.68088
2.68534
2.68679
2.68666
2.68597
2.68476
2.68299
2.67998
2.67494
2.66697
2.65568
2.63857
2.6109
2.55138
2.43489
1
1
1
1
1
1
1
1
1
1
1
1
1
1
1
1
1
1
1
1
1
1
1
1
1
1.00021
2.15667
2.61676
2.61584
2.62029
2.6295
2.64153
2.65374
2.66381
2.67082
2.67445
2.6753
2.67447
2.67238
2.66907
2.66396
2.65626
2.64468
2.62759
2.60107
2.55446
2.48296
2.29974
1
1
1
1
1
1
1
1
1
1
1
1
1
1
1
1
1
1
1
1
1
1
1
1
1
0.999998
1.93404
2.59597
2.61479
2.61916
2.62363
2.62925
2.63725
2.64573
2.65329
2.65853
2.66087
2.66046
2.65832
2.65416
2.64737
2.63707
2.62195
2.59931
2.56525
2.51108
2.41821
2.22638
1
1
1
1
1
1
1
1
1
1
1
1
1
1
1
1
1
1
1
1
1
1
1
1
1
1
1.59421
2.49888
2.60657
2.61383
2.61725
2.62049
2.62524
2.6307
2.63622
2.64093
2.64385
2.64392
2.6422
2.63784
2.63008
2.61785
2.5996
2.57313
2.53278
2.4754
2.3715
2.20227
1
1
1
1
1
1
1
1
1
1
1
1
1
1
1
1
1
1
1
1
1
1
1
1
1
1
1.16861
2.35698
2.61086
2.60638
2.60886
2.61197
2.61503
2.61766
2.62048
2.62318
2.62532
2.62545
2.62394
2.61967
2.61148
2.59828
2.57797
2.5491
2.50625
2.44672
2.34569
2.2121
1
1
1
1
1
1
1
1
1
1
1
1
1
1
1
1
1
1
1
1
1
1
1
1
1
1
1.0072
2.21754
2.58568
2.58566
2.59162
2.59827
2.60313
2.60531
2.60669
2.60726
2.60747
2.60663
2.60429
2.59959
2.59116
2.57774
2.55706
2.52709
2.48432
2.42503
2.33414
2.22464
1
1
1
1
1
1
1
1
1
1
1
1
1
1
1
1
1
1
1
1
1
1
1
1
1
1
0.999993
1.95518
2.55017
2.57633
2.58299
2.58848
2.59206
2.59435
2.59504
2.59429
2.59258
2.58979
2.58563
2.57957
2.57032
2.5566
2.53629
2.50672
2.46548
2.40923
2.32998
2.23741
1
1
1
1
1
1
1
1
1
1
1
1
1
1
1
1
1
1
1
1
1
1
1
1
1
1
0.999996
1.53341
2.44326
2.56743
2.57152
2.57691
2.58018
2.58242
2.58297
2.58187
2.57911
2.57472
2.56851
2.56038
2.54956
2.53505
2.51518
2.48704
2.44818
2.3969
2.32805
2.24894
1
1
1
1
1
1
1
1
1
1
1
1
1
1
1
1
1
1
1
1
1
1
1
1
1
1
0.999999
1.07899
2.28612
2.56847
2.56136
2.56281
2.56621
2.56865
2.56972
2.56888
2.56604
2.56098
2.55344
2.54355
2.53089
2.51495
2.49493
2.46798
2.4315
2.38563
2.32576
2.2589
1
1
1
1
1
1
1
1
1
1
1
1
1
1
1
1
1
1
1
1
1
1
1
1
1
1
1
1.0014
2.08198
2.52839
2.53914
2.54821
2.55217
2.55388
2.55505
2.5545
2.55202
2.54704
2.53925
2.5284
2.51475
2.49711
2.47622
2.4493
2.41539
2.37457
2.32231
2.26624
1
1
1
1
1
1
1
1
1
1
1
1
1
1
1
1
1
1
1
1
1
1
1
1
1
1
1
0.99999
1.6525
2.43942
2.52827
2.53427
2.53856
2.54074
2.54104
2.54007
2.53744
2.53257
2.52498
2.51412
2.50002
2.48195
2.46019
2.43278
2.4011
2.36373
2.31796
2.27047
1
1
1
1
1
1
1
1
1
1
1
1
1
1
1
1
1
1
1
1
1
1
1
1
1
1
1
0.999997
1.11755
2.2832
2.52863
2.52067
2.52265
2.52567
2.52533
2.52409
2.52137
2.51672
2.50967
2.49942
2.48576
2.46826
2.44643
2.41923
2.38902
2.35361
2.3131
2.27035
1
1
1
1
1
1
1
1
1
1
1
1
1
1
1
1
1
1
1
1
1
1
1
1
1
1
1
1
1.00325
2.07463
2.48784
2.49617
2.50686
2.50945
2.50923
2.50786
2.50498
2.50034
2.49359
2.48412
2.47148
2.45508
2.43397
2.40821
2.37969
2.3461
2.30949
2.2699
1
1
1
1
1
1
1
1
1
1
1
1
1
1
1
1
1
1
1
1
1
1
1
1
1
1
1
1
0.999985
1.5957
2.39141
2.48319
2.49446
2.49548
2.49476
2.49302
2.48968
2.48456
2.47752
2.46825
2.45644
2.44133
2.42171
2.39836
2.37167
2.34029
2.30651
2.2691
1
1
1
1
1
1
1
1
1
1
1
1
1
1
1
1
1
1
1
1
1
1
1
1
1
1
1
1
0.999996
1.09446
2.22701
2.48098
2.47705
2.47841
2.47801
2.47655
2.47347
2.46845
2.4615
2.45256
2.44118
2.42729
2.40952
2.38864
2.36402
2.33542
2.30393
2.26913
1
1
1
1
1
1
1
1
1
1
1
1
1
1
1
1
1
1
1
1
1
1
1
1
1
1
1
1
0.999999
1.00184
1.91466
2.43124
2.45452
2.45751
2.46011
2.45998
2.45767
2.45305
2.44633
2.43752
2.42651
2.41294
2.39662
2.37779
2.3554
2.32964
2.30046
2.26863
1
1
1
1
1
1
1
1
1
1
1
1
1
1
1
1
1
1
1
1
1
1
1
1
1
1
1
1
1
0.999994
1.3042
2.29675
2.45567
2.44541
2.44487
2.44401
2.44158
2.43754
2.43161
2.4234
2.41279
2.39959
2.38406
2.3664
2.34579
2.32245
2.29609
2.26748
1
1
1
1
1
1
1
1
1
1
1
1
1
1
1
1
1
1
1
1
1
1
1
1
1
1
1
1
1
0.999998
1.02122
2.1155
2.42966
2.42382
2.42559
2.42489
2.42328
2.42055
2.41595
2.4087
2.39881
2.38633
2.3716
2.35485
2.33566
2.31408
2.2904
2.26467
1
1
1
1
1
1
1
1
1
1
1
1
1
1
1
1
1
1
1
1
1
1
1
1
1
1
1
1
1
1
1.00005
1.61489
2.33983
2.40844
2.4121
2.411
2.40871
2.40557
2.40092
2.39417
2.38513
2.37361
2.35975
2.34367
2.32544
2.30518
2.28357
2.26008
1
1
1
1
1
1
1
1
1
1
1
1
1
1
1
1
1
1
1
1
1
1
1
1
1
1
1
1
1
1
1
1.09808
2.16501
2.40924
2.40258
2.39842
2.39417
2.38989
2.38475
2.37842
2.37039
2.36008
2.34741
2.3324
2.31533
2.29632
2.27615
2.25431
1
1
1
1
1
1
1
1
1
1
1
1
1
1
1
1
1
1
1
1
1
1
1
1
1
1
1
1
1
1
1
1.00189
1.7566
2.33796
2.38325
2.38146
2.37963
2.37637
2.37119
2.36443
2.35634
2.34659
2.33486
2.32115
2.30542
2.28757
2.26839
2.24793
1
1
1
1
1
1
1
1
1
1
1
1
1
1
1
1
1
1
1
1
1
1
1
1
1
1
1
1
1
1
1
1
1.16816
2.17046
2.38155
2.37247
2.36887
2.36466
2.35875
2.35137
2.34288
2.33315
2.32192
2.30916
2.29477
2.27835
2.26037
2.24129
1
1
1
1
1
1
1
1
1
1
1
1
1
1
1
1
1
1
1
1
1
1
1
1
1
1
1
1
1
1
1
1
1.00593
1.82176
2.32098
2.35474
2.35288
2.34971
2.34482
2.33828
2.33008
2.32046
2.30954
2.29737
2.28396
2.2689
2.25224
2.23434
1
1
1
1
1
1
1
1
1
1
1
1
1
1
1
1
1
1
1
1
1
1
1
1
1
1
1
1
1
1
1
1
1.00001
1.21526
2.15194
2.34899
2.34218
2.33853
2.3334
2.32669
2.31843
2.30884
2.29811
2.28629
2.27344
2.25933
2.24383
2.22703
1
1
1
1
1
1
1
1
1
1
1
1
1
1
1
1
1
1
1
1
1
1
1
1
1
1
1
1
1
1
1
1
1
1.00987
1.81416
2.28802
2.32775
2.32409
2.31926
2.31311
2.30555
2.29672
2.28675
2.27563
2.26345
2.2501
2.23546
2.21968
1
1
1
1
1
1
1
1
1
1
1
1
1
1
1
1
1
1
1
1
1
1
1
1
1
1
1
1
1
1
1
1
1
1.00003
1.21929
2.11361
2.31608
2.3114
2.30704
2.3011
2.29406
2.28606
2.27686
2.26631
2.25452
2.24156
2.22741
2.21229
1
1
1
1
1
1
1
1
1
1
1
1
1
1
1
1
1
1
1
1
1
1
1
1
1
1
1
1
1
1
1
1
1
1
1.01024
1.74138
2.24397
2.2982
2.29207
2.28665
2.2807
2.2739
2.26576
2.2561
2.24496
2.23263
2.21925
2.2048
1
1
1
1
1
1
1
1
1
1
1
1
1
1
1
1
1
1
1
1
1
1
1
1
1
1
1
1
1
1
1
1
1
1
1.00005
1.17937
2.0598
2.28345
2.27849
2.27499
2.26961
2.263
2.25515
2.24609
2.2357
2.22408
2.21152
2.19785
1
1
1
1
1
1
1
1
1
1
1
1
1
1
1
1
1
1
1
1
1
1
1
1
1
1
1
1
1
1
1
1
1
1
1
1.0068
1.59648
2.17929
2.26435
2.25801
2.25373
2.24848
2.24198
2.23418
2.22508
2.21462
2.20297
2.1904
1
1
1
1
1
1
1
1
1
1
1
1
1
1
1
1
1
1
1
1
1
1
1
1
1
1
1
1
1
1
1
1
1
1
1
1.00003
1.10767
1.98489
2.25336
2.24408
2.23887
2.23404
2.22885
2.22237
2.21456
2.20535
2.19475
2.18321
1
1
1
1
1
1
1
1
1
1
1
1
1
1
1
1
1
1
1
1
1
1
1
1
1
1
1
1
1
1
1
1
1
1
1
1
1.0025
1.45686
2.12196
2.229
2.22215
2.2182
2.2136
2.20795
2.20121
2.19348
2.18462
2.17449
1
1
1
1
1
1
1
1
1
1
1
1
1
1
1
1
1
1
1
1
1
1
1
1
1
1
1
1
1
1
1
1
1
1
1
1
1.00001
1.05443
1.84891
2.2046
2.21457
2.20894
2.20251
2.19614
2.18951
2.18252
2.17495
2.16627
1
1
1
1
1
1
1
1
1
1
1
1
1
1
1
1
1
1
1
1
1
1
1
1
1
1
1
1
1
1
1
1
1
1
1
1
1
1.00076
1.28716
2.03724
2.20332
2.19369
2.18864
2.18274
2.17657
2.17022
2.16343
2.15584
1
1
1
1
1
1
1
1
1
1
1
1
1
1
1
1
1
1
1
1
1
1
1
1
1
1
1
1
1
1
1
1
1
1
1
1
1
1
1.01878
1.62649
2.12051
2.18469
2.17799
2.17219
2.16641
2.16014
2.15331
2.14583
1
1
1
1
1
1
1
1
1
1
1
1
1
1
1
1
1
1
1
1
1
1
1
1
1
1
1
1
1
1
1
1
1
1
1
1
1
1
1.00017
1.12658
1.89802
2.17107
2.16826
2.16216
2.15619
2.14969
2.14269
2.13523
1
1
1
1
1
1
1
1
1
1
1
1
1
1
1
1
1
1
1
1
1
1
1
1
1
1
1
1
1
1
1
1
1
1
1
1
1
1
1
1.00363
1.37945
2.02892
2.15511
2.14873
2.14251
2.13679
2.13052
2.1236
1
1
1
1
1
1
1
1
1
1
1
1
1
1
1
1
1
1
1
1
1
1
1
1
1
1
1
1
1
1
1
1
1
1
1
1
1
1
1
1.00002
1.03671
1.67229
2.09061
2.14226
2.13444
2.12767
2.12147
2.11482
1
1
1
1
1
1
1
1
1
1
1
1
1
1
1
1
1
1
1
1
1
1
1
1
1
1
1
1
1
1
1
1
1
1
1
1
1
1
1
1
1.00048
1.16039
1.87616
2.12337
2.1263
2.11972
2.11286
2.10575
1
1
1
1
1
1
1
1
1
1
1
1
1
1
1
1
1
1
1
1
1
1
1
1
1
1
1
1
1
1
1
1
1
1
1
1
1
1
1
1
1
1.00592
1.38008
1.98297
2.11259
2.10833
2.1017
2.09527
1
1
1
1
1
1
1
1
1
1
1
1
1
1
1
1
1
1
1
1
1
1
1
1
1
1
1
1
1
1
1
1
1
1
1
1
1
1
1
1
1
1.00004
1.03816
1.61703
2.04176
2.10176
2.09301
2.08538
1
1
1
1
1
1
1
1
1
1
1
1
1
1
1
1
1
1
1
1
1
1
1
1
1
1
1
1
1
1
1
1
1
1
1
1
1
1
1
1
1
1
1.00055
1.13468
1.80765
2.06557
2.08884
2.07989
1
1
1
1
1
1
1
1
1
1
1
1
1
1
1
1
1
1
1
1
1
1
1
1
1
1
1
1
1
1
1
1
1
1
1
1
1
1
1
1
1
1
1
1.00449
1.3077
1.90518
2.07176
2.07069
1
1
1
1
1
1
1
1
1
1
1
1
1
1
1
1
1
1
1
1
1
1
1
1
1
1
1
1
1
1
1
1
1
1
1
1
1
1
1
1
1
1
1
1.00003
1.02396
1.49656
1.97188
2.05982
1
1
1
1
1
1
1
1
1
1
1
1
1
1
1
1
1
1
1
1
1
1
1
1
1
1
1
1
1
1
1
1
1
1
1
1
1
1
1
1
1
1
1
1
1.0003
1.07984
1.67215
2.00536
1
1
1
1
1
1
1
1
1
1
1
1
1
1
1
1
1
1
1
1
1
1
1
1
1
1
1
1
1
1
1
1
1
1
1
1
1
1
1
1
1
1
1
1
1
1.00188
1.18716
1.79886
1
1
1
1
1
1
1
1
1
1
1
1
1
1
1
1
1
1
1
1
1
1
1
1
1
1
1
1
1
1
1
1
1
1
1
1
1
1
1
1
1
1
1
1
1
1.00001
1.00883
1.3323
1
1
1
1
1
1
1
1
1
1
1
1
1
1
1
1
1
1
1
1
1
1
1
1
1
1
1
1
1
1
1
1
1
1
1
1
1
1
1
1
1
1
1
1
1
1
1.00008
1.03026
1
1
1
1
1
1
1
1
1
1
1
1
1
1
1
1
1
1
1
1
1
1
1
1
1
1
1
1
1
1
1
1
1
1
1
1
1
1
1
1
1
1
1
1
1
1
1
1.00045
1
1
1
1
1
1
1
1
1
1
1
1
1
1
1
1
1
1
1
1
1
1
1
1
1
1
1
1
1
1
1
1
1
1
1
1
1
1
1
1
1
1
1
1
1
1
1
1
1
1
1
1
1
1
1
1
1
1
1
1
1
1
1
1
1
1
1
1
1
1
1
1
1
1
1
1
1
1
1
1
1
1
1
1
1
1
1
1
1
1
1
1
1
1
1
1
1
1
1
1
1
1
1
1
1
1
1
1
1
1
1
1
1
1
1
1
1
1
1
1
1
1
1
1
1
1
1
1
1
1
1
1
1
1
1
1
1
1
1
1
1
1
1
1
1
1
1
1
1
1
1
1
1
1
1
1
1
1
1
1
1
1
1
1
1
1
1
1
1
1
1
1
1
1
1
1
1
1
1
1
1
1
1
1
1
1
1
1
1
1
1
1
1
1
1
1
1
1
1
1
1
1
1
1
1
1
1
1
1
1
1
1
1
1
1
1
1
1
1
1
1
1
1
1
1
1
1
1
1
1
1
1
1
1
1
1
1
1
1
1
1
1
1
1
1
1
1
1
1
1
1
1
1
1
1
1
1
1
1
1
1
1
1
1
1
1
1
1
1
1
1
1
1
1
1
1
1
1
1
1
1
1
1
1
1
1
1
1
1
1
1
1
1
1
1
1
1
1
1
1
1
1
1
1
1
1
1
1
1
1
1
1
1
1
1
1
1
1
1
1
1
1
1
1
1
1
1
1
1
1
1
1
1
1
1
1
1
1
1
1
1
1
1
1
1
1
1
1
1
1
1
1
1
1
1
1
1
1
1
1
1
1
1
1
1
1
1
1
1
1
1
1
1
1
1
1
1
1
1
1
1
1
1
1
1
1
1
1
1
1
1
1
1
1
1
1
1
1
1
1
1
1
1
1
1
1
1
1
1
1
1
1
1
1
1
1
1
1
1
1
1
1
1
1
1
1
1
1
1
1
1
1
1
1
1
1
1
1
1
1
1
1
1
1
1
1
1
1
1
1
1
1
1
1
1
1
1
1
1
1
1
1
1
1
1
1
1
1
1
1
1
1
1
1
1
1
1
1
1
1
1
1
1
1
1
1
1
1
1
1
1
1
1
1
1
1
1
1
1
1
1
1
1
1
1
1
1
1
1
1
1
1
1
1
1
1
1
1
1
1
1
1
1
1
1
1
1
1
1
1
1
1
1
1
1
1
1
1
1
1
1
1
1
1
1
1
1
1
1
1
1
1
1
1
1
1
1
1
1
1
1
1
1
1
1
1
1
1
1
1
1
1
1
1
1
1
1
1
1
1
1
1
1
1
1
1
1
1
1
1
1
1
1
1
1
1
1
1
1
1
1
1
1
1
1
1
1
1
1
1
1
1
1
1
1
1
1
1
1
1
1
1
1
1
1
1
1
1
1
1
1
1
1
1
1
1
1
1
1
1
1
1
1
1
1
1
1
1
1
1
1
1
1
1
1
1
1
1
1
1
1
1
1
1
1
1
1
1
1
1
1
1
1
1
1
1
1
1
1
1
1
1
1
1
1
1
1
1
1
1
1
1
1
1
1
1
1
1
1
1
1
1
1
1
1
1
1
1
1
1
1
1
1
1
1
1
1
1
1
1
1
1
1
1
1
1
1
1
1
1
1
1
1
1
1
1
1
1
1
1
1
1
1
1
1
1
1
1
1
1
1
1
1
1
1
1
1
1
1
1
1
1
1
1
1
1
1
1
1.56018
0.994787
0.77276
0.671961
0.818518
0.974209
1.06535
1.12404
1.17788
1.24059
1.31097
1.37425
1.43982
1.49414
1.50607
1.52019
1.546
1.60081
1.66226
1.66481
1.64474
1.61581
1.61458
1.63067
1.66168
1.68794
1.69035
1.67499
1.64302
1.63626
1.64683
1.67231
1.68344
1.68331
1.6815
1.67205
1.6626
1.65838
1.65707
1.65556
1.65413
1.65607
1.66375
1.66789
1.67
1.67314
1.67485
1.67478
1.674
1.673
1.6742
1.67991
1.68626
1.68803
1.68802
1.68696
1.6844
1.68084
1.67819
1.67661
1.67537
1.67405
1.67228
1.66942
1.66495
1.66058
1.6576
1.65535
2.18868
2.80328
2.8615
2.85774
2.85333
2.84554
2.83279
2.81678
2.80006
2.78412
2.76757
2.75123
2.73534
2.72044
2.70613
2.69111
2.67482
2.65856
2.64433
2.6334
2.62584
2.62069
2.61591
2.60894
2.59783
2.58295
2.56641
2.55014
2.5353
2.52222
2.51081
2.5007
2.49123
2.48181
2.47169
2.4611
2.45095
2.44138
2.43334
2.42696
2.42154
2.41714
2.41293
2.40714
2.39852
2.38733
2.37277
2.35748
2.34592
2.3377
2.33182
2.32843
2.32483
2.31968
2.31348
2.30653
2.29912
2.29181
2.28557
2.28081
2.27495
2.26872
2.26302
2.25564
2.24538
2.23531
2.22743
2.22078
2.21426
2.20941
2.2084
2.20735
2.20223
2.19612
2.18849
2.17601
2.15795
2.14399
2.13562
2.12835
2.12151
2.11516
2.10935
2.10367
2.09825
2.09417
2.09099
2.0888
2.08875
2.08998
2.08891
2.08484
2.07961
2.07121
2.0576
2.04298
2.03092
2.02197
2.01558
2.01069
2.00688
2.00448
2.00369
2.00446
2.00728
2.00975
2.0096
2.00773
2.0041
1.99684
1.98512
1.97117
1.95943
1.95119
1.94575
1.94157
1.93779
1.93423
1.93096
1.92852
1.92843
1.93194
1.9354
1.93116
1.80456
1.50569
1.31797
1.09715
1.04959
1.04158
1.03172
1.03311
1.02204
1.02453
1.04833
1.09026
1.12876
1.17732
1.2382
1.29207
1.34215
1.3905
1.44653
1.50013
1.52401
1.52699
1.53606
1.55107
1.57832
1.61004
1.6174
1.61108
1.5984
1.59526
1.60412
1.62283
1.63392
1.63666
1.63735
1.63534
1.63264
1.63254
1.63274
1.63251
1.63267
1.63606
1.64212
1.6439
1.64543
1.64729
1.64954
1.65081
1.65075
1.65115
1.65386
1.6603
1.66564
1.66739
1.66738
1.66678
1.66463
1.66186
1.6596
1.65832
1.65786
1.65765
1.6574
1.65672
1.65472
1.65155
1.64885
1.64447
2.10413
2.74877
2.82976
2.8226
2.81307
2.80331
2.78877
2.77253
2.7576
2.74459
2.73074
2.71544
2.69878
2.68235
2.6682
2.6568
2.64646
2.63585
2.62498
2.61402
2.60365
2.59416
2.58468
2.57446
2.56359
2.55166
2.53886
2.52635
2.5148
2.50416
2.49432
2.48497
2.47593
2.46746
2.45928
2.44996
2.43958
2.42914
2.41938
2.41103
2.40392
2.39817
2.39292
2.38712
2.38068
2.37363
2.3657
2.35698
2.34739
2.33823
2.33114
2.32545
2.31978
2.31385
2.30744
2.30047
2.29298
2.28518
2.27739
2.27027
2.26433
2.25938
2.25461
2.24944
2.24344
2.2361
2.22729
2.21854
2.2113
2.20523
2.20115
2.1964
2.19043
2.18449
2.17771
2.16869
2.15786
2.14645
2.13655
2.12912
2.12228
2.1157
2.10969
2.10409
2.09849
2.09302
2.08878
2.08546
2.08222
2.07879
2.07601
2.07358
2.06984
2.06389
2.05638
2.04821
2.03856
2.02786
2.01786
2.01077
2.00653
2.00392
2.00283
2.00268
2.0019
2.00031
1.99883
1.99723
1.99424
1.98897
1.98168
1.97447
1.96675
1.95773
1.94859
1.94209
1.93792
1.93454
1.93122
1.92869
1.92758
1.92656
1.92546
1.92189
1.93031
1.70257
1.51559
1.37038
1.30486
1.22214
1.12864
1.09493
1.09137
1.06742
1.0329
1.03536
1.05111
1.07712
1.11834
1.12693
1.14463
1.18602
1.23345
1.28974
1.34747
1.38398
1.41746
1.43807
1.45918
1.48314
1.49846
1.51398
1.52124
1.52768
1.54395
1.55797
1.56493
1.56889
1.56881
1.56995
1.5713
1.57289
1.574
1.57489
1.57848
1.58693
1.59432
1.59734
1.5988
1.59863
1.59813
1.5976
1.59713
1.59913
1.60598
1.61522
1.62086
1.62329
1.62295
1.62131
1.61931
1.61714
1.61566
1.6154
1.61566
1.6162
1.61677
1.61759
1.61856
1.61856
1.61942
1.63068
1.91615
2.59539
2.73868
2.70649
2.69344
2.68992
2.683
2.67292
2.66241
2.65324
2.64463
2.63544
2.62347
2.60877
2.5945
2.58307
2.57493
2.56867
2.56311
2.55791
2.55137
2.54327
2.53356
2.52136
2.50871
2.49649
2.48421
2.47313
2.46424
2.45678
2.44929
2.44146
2.43336
2.42581
2.41935
2.41379
2.40807
2.4015
2.39378
2.38384
2.37259
2.3624
2.35415
2.34716
2.34133
2.33699
2.33421
2.33136
2.32703
2.32194
2.31621
2.30974
2.30272
2.29556
2.28867
2.28195
2.27494
2.26702
2.25788
2.24863
2.24136
2.23514
2.23013
2.22699
2.22489
2.22184
2.21745
2.21118
2.20251
2.19268
2.18391
2.17666
2.17015
2.16348
2.15598
2.1488
2.14317
2.13666
2.12823
2.12033
2.11413
2.10872
2.10395
2.09942
2.09456
2.08866
2.08154
2.07419
2.06797
2.06251
2.0573
2.05276
2.04909
2.04682
2.04538
2.04176
2.03738
2.03124
2.0222
2.01209
2.00398
1.99914
1.99621
1.99359
1.99037
1.98674
1.98296
1.97905
1.97547
1.97268
1.97056
1.96841
1.96587
1.96134
1.95331
1.94343
1.93555
1.93113
1.92799
1.92554
1.92235
1.91787
1.91328
1.90678
1.9878
1.82564
1.66728
1.52595
1.46094
1.39379
1.29794
1.24526
1.23277
1.19405
1.13896
1.13025
1.13203
1.12844
1.11134
1.10328
1.10638
1.11262
1.12724
1.1572
1.20178
1.24795
1.29817
1.3326
1.35047
1.36476
1.37834
1.40625
1.43257
1.45294
1.4766
1.48984
1.49679
1.49884
1.50244
1.50963
1.51516
1.51867
1.51988
1.52118
1.52576
1.53284
1.53744
1.54005
1.54019
1.53866
1.53883
1.53886
1.53915
1.54256
1.55111
1.55875
1.56339
1.56457
1.5637
1.5616
1.5608
1.56117
1.56252
1.56501
1.56789
1.56985
1.57048
1.57098
1.57146
1.57307
1.58557
1.66317
1.85147
2.30327
2.55906
2.60081
2.57592
2.56188
2.55547
2.5504
2.54548
2.54113
2.53553
2.52921
2.52129
2.5112
2.50277
2.49496
2.48795
2.48303
2.47808
2.47301
2.46715
2.46015
2.45421
2.44755
2.43824
2.42872
2.42005
2.41118
2.40393
2.39865
2.39208
2.38502
2.37836
2.37169
2.36589
2.36122
2.35662
2.35182
2.34658
2.33939
2.32941
2.31862
2.31
2.30356
2.29825
2.29419
2.29189
2.2903
2.28885
2.28688
2.28266
2.27707
2.27039
2.26217
2.25403
2.24725
2.24123
2.23509
2.2284
2.22098
2.21281
2.20486
2.1991
2.19556
2.19325
2.19187
2.19058
2.18747
2.18208
2.17361
2.16257
2.15166
2.14225
2.13404
2.12766
2.12336
2.11996
2.1161
2.11104
2.10408
2.09727
2.09265
2.08885
2.08553
2.08191
2.07763
2.07122
2.06178
2.05081
2.04161
2.03539
2.031
2.02799
2.02618
2.02613
2.02745
2.02683
2.0233
2.01886
2.0127
2.00355
1.99276
1.9834
1.97681
1.97152
1.96632
1.96182
1.95818
1.95578
1.95476
1.95482
1.95624
1.95632
1.9549
1.95206
1.94605
1.93644
1.92652
1.9194
1.91392
1.90796
1.90098
1.89416
1.88699
2.04434
1.91206
1.78344
1.65405
1.58048
1.51895
1.4299
1.3697
1.33289
1.30005
1.26598
1.23299
1.20988
1.1943
1.17055
1.16097
1.15405
1.14605
1.14764
1.15793
1.15804
1.16304
1.1772
1.20309
1.23004
1.25755
1.28612
1.32508
1.36985
1.3969
1.41686
1.42974
1.44049
1.44641
1.453
1.46457
1.47613
1.48546
1.4921
1.49705
1.50021
1.50263
1.50486
1.50469
1.50333
1.50147
1.50144
1.50196
1.50451
1.51079
1.51871
1.52237
1.52334
1.52354
1.5229
1.52219
1.52278
1.52446
1.52674
1.52898
1.53079
1.5316
1.53138
1.53156
1.53517
1.54712
1.61753
1.83563
1.9429
2.04591
2.29343
2.44773
2.49442
2.49348
2.4829
2.4709
2.46501
2.4618
2.45799
2.45294
2.44802
2.44163
2.43668
2.43138
2.42412
2.41741
2.41148
2.40504
2.39948
2.39364
2.38882
2.38447
2.3785
2.3706
2.36365
2.35751
2.35187
2.34749
2.34203
2.3357
2.32971
2.32356
2.31738
2.31189
2.30736
2.30341
2.2993
2.29353
2.285
2.27476
2.26555
2.25918
2.25521
2.25277
2.25157
2.25085
2.25005
2.24849
2.24517
2.24054
2.23447
2.22615
2.21775
2.21105
2.20536
2.19983
2.19399
2.18733
2.1796
2.17208
2.16664
2.16289
2.16031
2.15877
2.15752
2.15546
2.15196
2.14543
2.13507
2.1231
2.11281
2.10576
2.10109
2.09776
2.09505
2.09181
2.08805
2.08298
2.07618
2.07046
2.06697
2.06379
2.06047
2.05657
2.05135
2.04435
2.03548
2.02529
2.01634
2.011
2.00815
2.00618
2.0062
2.00808
2.00863
2.0072
2.00456
2.00074
1.99525
1.98658
1.97408
1.96079
1.95071
1.94431
1.93971
1.93688
1.93579
1.93563
1.93718
1.94013
1.94119
1.94143
1.94098
1.93835
1.93298
1.92284
1.90932
1.89747
1.88894
1.88152
1.87482
1.86787
2.09549
1.98149
1.86726
1.76184
1.68255
1.61154
1.53829
1.48114
1.42937
1.38256
1.35651
1.33597
1.30285
1.2694
1.24355
1.22771
1.21703
1.19973
1.19198
1.18916
1.18256
1.16946
1.16976
1.17346
1.17734
1.1832
1.19625
1.22187
1.27101
1.31588
1.34366
1.36706
1.38818
1.40544
1.41872
1.43531
1.44985
1.46104
1.47185
1.47844
1.48053
1.48188
1.48288
1.48223
1.48079
1.48111
1.4823
1.48576
1.49287
1.49929
1.50194
1.50252
1.50288
1.50268
1.50222
1.50253
1.50357
1.50539
1.50768
1.50958
1.51114
1.5121
1.51261
1.51549
1.52786
1.59956
1.78678
1.9637
1.99592
1.99795
2.06206
2.25062
2.40535
2.43847
2.45039
2.44184
2.43284
2.42723
2.42372
2.42123
2.41941
2.4157
2.41155
2.40587
2.39648
2.38686
2.3797
2.37319
2.36759
2.36322
2.35843
2.35405
2.34912
2.3423
2.33407
2.32735
2.32173
2.31705
2.31293
2.30758
2.30203
2.29659
2.29077
2.28481
2.28018
2.27615
2.27153
2.26574
2.25865
2.25052
2.24204
2.23436
2.22911
2.22629
2.22486
2.22361
2.22144
2.21809
2.21377
2.20835
2.20156
2.19386
2.18719
2.18216
2.17767
2.17287
2.16733
2.16079
2.15327
2.14592
2.14006
2.13559
2.13214
2.12943
2.12696
2.12418
2.12042
2.11502
2.1077
2.09912
2.09089
2.08455
2.08011
2.07694
2.07433
2.07129
2.06786
2.06335
2.05616
2.04828
2.04317
2.03932
2.03539
2.03109
2.02645
2.02152
2.01618
2.01016
2.00325
1.99627
1.99148
1.98905
1.98745
1.9868
1.98733
1.98751
1.98601
1.9835
1.98014
1.974
1.9642
1.95197
1.93873
1.92731
1.92089
1.91856
1.9174
1.91684
1.9184
1.92219
1.92487
1.92551
1.92523
1.92375
1.92037
1.91273
1.89949
1.88357
1.87043
1.86145
1.85549
1.85041
2.13557
2.03685
1.93428
1.84893
1.77018
1.69168
1.62102
1.57458
1.52511
1.46821
1.42882
1.40918
1.37931
1.34356
1.30777
1.28627
1.28165
1.26912
1.2447
1.23638
1.23348
1.21902
1.19794
1.19669
1.1976
1.19297
1.19126
1.19231
1.20127
1.21811
1.23636
1.26211
1.29177
1.33005
1.36479
1.39245
1.4213
1.44029
1.4581
1.46753
1.46761
1.46916
1.47035
1.4694
1.47038
1.47344
1.47648
1.4812
1.48836
1.49292
1.49327
1.49329
1.4936
1.49465
1.49532
1.4968
1.49779
1.49863
1.49997
1.50123
1.50191
1.5024
1.50546
1.51716
1.60458
1.79013
1.94949
1.99532
2.00323
1.99835
1.9989
2.05335
2.23468
2.37398
2.42086
2.43031
2.42252
2.41559
2.41033
2.40782
2.40604
2.40382
2.40034
2.3953
2.38698
2.37826
2.37047
2.3634
2.35766
2.35313
2.34855
2.34358
2.33868
2.33336
2.32686
2.31976
2.3141
2.3095
2.30563
2.30145
2.29628
2.29062
2.28441
2.27705
2.26907
2.26249
2.25713
2.25185
2.24597
2.23974
2.23378
2.22743
2.22065
2.21471
2.21005
2.20586
2.20126
2.19579
2.18954
2.18274
2.17625
2.17057
2.16644
2.16323
2.1602
2.15667
2.15189
2.1454
2.1375
2.12969
2.1229
2.11695
2.11157
2.10674
2.10253
2.09879
2.09503
2.09103
2.08687
2.08271
2.07842
2.07379
2.06944
2.06584
2.06258
2.0591
2.05483
2.04838
2.03851
2.02814
2.02139
2.01691
2.01291
2.00889
2.00501
2.00209
2.00007
1.99806
1.99505
1.99012
1.9829
1.97589
1.97196
1.96942
1.96812
1.96901
1.96762
1.9647
1.9607
1.95467
1.94724
1.93953
1.93119
1.92178
1.91289
1.90713
1.90451
1.90338
1.90337
1.90677
1.91103
1.91123
1.91002
1.90779
1.90386
1.8968
1.88608
1.87202
1.85768
1.84648
1.84063
1.83603
2.16522
2.07717
1.99036
1.91508
1.84088
1.76144
1.70082
1.64871
1.59826
1.54603
1.51002
1.47349
1.43811
1.41178
1.37935
1.3457
1.33566
1.33107
1.31699
1.29303
1.28251
1.26964
1.24455
1.23298
1.23085
1.22432
1.20799
1.20338
1.20642
1.21406
1.21311
1.21203
1.21483
1.22719
1.25726
1.29397
1.34337
1.38469
1.41845
1.44313
1.44848
1.45545
1.46184
1.46378
1.46755
1.47198
1.47568
1.48047
1.48642
1.48698
1.48662
1.48714
1.48918
1.49258
1.49627
1.49849
1.49851
1.49779
1.4967
1.49602
1.49563
1.49711
1.50805
1.58524
1.81008
1.94699
1.99725
2.00108
1.99851
1.99792
1.99848
1.9991
2.04441
2.20685
2.35977
2.41382
2.42224
2.41454
2.40609
2.40216
2.39867
2.39697
2.39438
2.38973
2.38216
2.37445
2.36748
2.36049
2.35444
2.34871
2.34402
2.34042
2.33695
2.33283
2.32785
2.32184
2.31464
2.3084
2.30308
2.29791
2.29254
2.28645
2.28009
2.27249
2.26263
2.2535
2.24793
2.24345
2.23906
2.23471
2.23024
2.22491
2.21822
2.21003
2.20189
2.19503
2.18867
2.1818
2.1741
2.16634
2.15997
2.15655
2.15502
2.15329
2.15091
2.14817
2.14414
2.13757
2.12879
2.12021
2.11292
2.10659
2.10072
2.09489
2.08908
2.08403
2.08012
2.07695
2.07433
2.07237
2.07058
2.06823
2.06518
2.06128
2.05647
2.05082
2.04392
2.03553
2.02539
2.01456
2.00561
1.99885
1.99402
1.99114
1.98955
1.9892
1.98968
1.98975
1.9886
1.98617
1.98129
1.973
1.96419
1.95787
1.953
1.94797
1.944
1.9407
1.93751
1.9342
1.93045
1.92718
1.9243
1.92068
1.91487
1.90677
1.90046
1.89779
1.89604
1.89388
1.89141
1.89016
1.88876
1.88662
1.88361
1.87869
1.87051
1.86008
1.85017
1.84129
1.83397
1.82676
2.18744
2.10963
2.03654
1.96778
1.89547
1.82421
1.76916
1.7161
1.66397
1.61359
1.57788
1.53796
1.49296
1.46887
1.44943
1.41852
1.38456
1.37802
1.36969
1.34786
1.32614
1.31512
1.29902
1.2766
1.27155
1.26957
1.25848
1.24234
1.23812
1.23492
1.22777
1.21775
1.21254
1.21241
1.21425
1.22085
1.23931
1.2768
1.31633
1.35917
1.39335
1.41607
1.43606
1.4494
1.45923
1.46587
1.47245
1.47968
1.48173
1.4811
1.48125
1.48372
1.48716
1.49158
1.4974
1.49948
1.49935
1.49839
1.49573
1.49371
1.4934
1.50349
1.57767
1.79143
1.96297
1.99333
1.99859
1.99225
1.99136
1.99592
1.99777
1.99794
1.99527
2.02876
2.17351
2.32934
2.41168
2.41814
2.40937
2.40144
2.39474
2.39267
2.39063
2.38596
2.37886
2.37179
2.36574
2.35953
2.35281
2.34667
2.34147
2.33771
2.3354
2.33189
2.32694
2.32132
2.31453
2.30636
2.29944
2.29367
2.2878
2.28183
2.27561
2.26837
2.25879
2.24889
2.24245
2.23773
2.23381
2.2311
2.22757
2.22283
2.21711
2.20923
2.19968
2.19113
2.18368
2.17633
2.16835
2.16044
2.15485
2.15078
2.14832
2.14779
2.14675
2.14374
2.13922
2.13229
2.12384
2.11583
2.10871
2.10247
2.09691
2.09153
2.08571
2.07985
2.07531
2.07195
2.06947
2.06804
2.0668
2.06475
2.06161
2.05717
2.05075
2.04324
2.03557
2.02733
2.01873
2.00983
2.00027
1.9918
1.98642
1.98367
1.9827
1.98512
1.98834
1.98829
1.98703
1.98437
1.97973
1.97295
1.96328
1.95211
1.94236
1.93431
1.92735
1.92185
1.9185
1.91735
1.91753
1.91829
1.91898
1.91896
1.91757
1.91309
1.90461
1.89447
1.88662
1.88116
1.87769
1.87483
1.87172
1.86835
1.86466
1.86034
1.85504
1.84945
1.84469
1.83983
1.83442
1.82528
2.20339
2.13571
2.07305
2.00911
1.93912
1.88103
1.82707
1.775
1.72091
1.67639
1.63425
1.59774
1.55891
1.52114
1.50024
1.47883
1.44927
1.42586
1.41669
1.40209
1.37157
1.35106
1.34172
1.3265
1.31049
1.30722
1.30338
1.29117
1.27611
1.26908
1.26164
1.24624
1.22757
1.22277
1.22225
1.22283
1.22498
1.23049
1.23963
1.25424
1.28032
1.31047
1.34844
1.3853
1.41368
1.43628
1.45218
1.4705
1.47589
1.47764
1.47952
1.48313
1.48567
1.48917
1.49472
1.49719
1.49705
1.49622
1.49374
1.49254
1.50387
1.59138
1.77668
1.96499
1.99511
1.99244
1.99023
1.98763
1.98934
1.99704
1.99955
1.99758
1.99155
1.98273
2.00583
2.12907
2.30559
2.39947
2.41167
2.4023
2.38998
2.38669
2.38433
2.38004
2.37444
2.369
2.3639
2.35826
2.35083
2.34356
2.338
2.33333
2.32909
2.32493
2.32057
2.31599
2.31002
2.30194
2.29414
2.28785
2.28194
2.27606
2.27024
2.26385
2.25588
2.24669
2.23965
2.23474
2.23064
2.22755
2.22411
2.2197
2.21444
2.20717
2.19799
2.1893
2.18212
2.17539
2.16886
2.16284
2.15699
2.15089
2.14499
2.14044
2.13707
2.13397
2.13032
2.12575
2.12029
2.1143
2.1082
2.10225
2.09661
2.09115
2.08551
2.07964
2.07392
2.06866
2.06377
2.05922
2.05603
2.05414
2.0525
2.04928
2.04419
2.03679
2.02825
2.02071
2.01429
2.00841
2.0024
1.9959
1.98885
1.98313
1.98036
1.97871
1.97745
1.97736
1.97767
1.97725
1.97472
1.96983
1.9623
1.95132
1.93753
1.92555
1.917
1.91194
1.90963
1.90876
1.91271
1.92059
1.92233
1.922
1.92084
1.91677
1.90797
1.89429
1.88121
1.87289
1.86711
1.86302
1.85946
1.85564
1.85141
1.84725
1.84428
1.84257
1.8409
1.83857
1.83588
1.82839
2.21493
2.15743
2.10178
2.04086
1.98051
1.92884
1.87643
1.82201
1.77385
1.73169
1.68897
1.64734
1.61596
1.58394
1.55043
1.52785
1.50658
1.47447
1.45565
1.44486