/*--------------------------------*- C++ -*----------------------------------*\
  =========                 |
  \\      /  F ield         | OpenFOAM: The Open Source CFD Toolbox
   \\    /   O peration     | Website:  https://openfoam.org
    \\  /    A nd           | Version:  7
     \\/     M anipulation  |
\*---------------------------------------------------------------------------*/
FoamFile
{
    version     2.0;
    format      ascii;
    class       volScalarField;
    location    "3.9";
    object      p;
}
// * * * * * * * * * * * * * * * * * * * * * * * * * * * * * * * * * * * * * //

dimensions      [1 -1 -2 0 0 0 0];

internalField   nonuniform List<scalar> 
258048
(
1
1
1
1
1
1
1
1
1
1
1
1
1
1
1
1
1
1
1
1
1
1
1
1
1
1
1
1
1
1
1
1
1
1
1
1
1
1
1
1
1
1
1
1
1
1
1
1
1
1
1
1
1
1
1
1
1
1
1
1
1
1
1
1
1
1
1
1
1
1
1
1
1
1
1
1
1
1
1
1
1
1
1
1
1
1
1
1
1
1
1
1
1
1
1
1
1
1
4.55521
10.1107
10.3795
10.4027
10.4367
10.4708
10.5068
10.5428
10.5779
10.6099
10.6379
10.6626
10.6872
10.7214
10.7668
10.8091
10.8367
10.844
10.8391
10.8414
10.8673
10.9194
10.9832
11.033
11.054
11.0445
11.0292
11.032
11.0698
11.1336
11.2006
11.2472
11.2613
11.2535
11.2451
11.251
11.2766
11.3181
11.3626
11.3974
11.4163
11.4216
11.422
11.4283
11.4467
11.4786
11.5171
11.5517
11.5756
11.588
11.5939
11.6011
11.6162
11.641
11.671
11.6982
11.7164
11.7262
11.7317
11.7374
11.7461
11.7584
11.7745
11.7941
11.8175
11.8449
11.8734
11.8915
11.894
11.8856
11.8763
11.8776
11.8944
11.9245
11.9552
11.972
11.972
11.9641
11.9606
11.9701
11.9901
12.007
12.0127
12.0076
12.0005
11.9997
12.0077
12.0244
12.0383
12.0425
12.041
12.0379
12.0376
12.0404
1
1
1
1
1
1
1
1
1
1
1
1
1
1
1
1
1
1
1
1
1
1
1
1
1
1
1
1
1
1
1
1
1
1
1
1
1
1
1
1
1
1
1
1
1
1
1
1
1
1
1
1
1
1
1
1
1
1
1
1
1
1
1
1
1
1
1
1
1
1
1
1
1
1
1
1
1
1
1
1
1
1
1
1
1
1
1
1
1
1
1
1
1
1
1
1
1
1
4.53442
10.1089
10.3868
10.4082
10.4403
10.4717
10.5051
10.5385
10.5714
10.6033
10.6339
10.6635
10.6926
10.7262
10.7669
10.8058
10.8315
10.84
10.84
10.8485
10.8775
10.9257
10.9816
11.0286
11.0519
11.0473
11.0375
11.0453
11.0824
11.1379
11.1948
11.2372
11.2546
11.2533
11.2494
11.2578
11.2832
11.3214
11.3618
11.3953
11.4155
11.4228
11.4252
11.4327
11.4511
11.4814
11.5177
11.5507
11.5742
11.5876
11.5947
11.6029
11.6183
11.6425
11.6712
11.6974
11.7159
11.7268
11.7335
11.7402
11.7487
11.7597
11.7746
11.7938
11.8176
11.8455
11.874
11.8918
11.8937
11.8853
11.8765
11.8786
11.896
11.9261
11.956
11.9719
11.9711
11.9635
11.9608
11.9709
11.991
12.0074
12.0124
12.0072
12.0004
12.0002
12.0087
12.0255
12.0386
12.0413
12.0392
12.0365
12.0374
12.0413
1
1
1
1
1
1
1
1
1
1
1
1
1
1
1
1
1
1
1
1
1
1
1
1
1
1
1
1
1
1
1
1
1
1
1
1
1
1
1
1
1
1
1
1
1
1
1
1
1
1
1
1
1
1
1
1
1
1
1
1
1
1
1
1
1
1
1
1
1
1
1
1
1
1
1
1
1
1
1
1
1
1
1
1
1
1
1
1
1
1
1
1
1
1
1
1
1
1
4.49649
10.0926
10.3892
10.4129
10.4467
10.4757
10.5037
10.5322
10.563
10.5953
10.6276
10.6601
10.6939
10.7309
10.7699
10.803
10.8228
10.83
10.8347
10.8526
10.8878
10.9338
10.9806
11.0165
11.0345
11.0362
11.0385
11.0607
11.1017
11.1485
11.1907
11.22
11.2336
11.2389
11.2452
11.2619
11.2905
11.3251
11.3585
11.3868
11.4067
11.4175
11.4241
11.4346
11.454
11.4829
11.5162
11.5465
11.5688
11.5828
11.5918
11.6019
11.6185
11.6423
11.6689
11.6927
11.7106
11.7229
11.7324
11.7416
11.7506
11.76
11.7728
11.7904
11.8141
11.843
11.8721
11.8897
11.8906
11.8819
11.8736
11.8772
11.8958
11.9264
11.9553
11.9695
11.9674
11.9599
11.9583
11.9698
11.9903
12.0058
12.0094
12.0036
11.9975
11.9986
12.0083
12.0259
12.0382
12.0389
12.0357
12.0334
12.0357
12.041
1
1
1
1
1
1
1
1
1
1
1
1
1
1
1
1
1
1
1
1
1
1
1
1
1
1
1
1
1
1
1
1
1
1
1
1
1
1
1
1
1
1
1
1
1
1
1
1
1
1
1
1
1
1
1
1
1
1
1
1
1
1
1
1
1
1
1
1
1
1
1
1
1
1
1
1
1
1
1
1
1
1
1
1
1
1
1
1
1
1
1
1
1
1
1
1
1
1
4.43563
10.0767
10.3841
10.4129
10.4493
10.4761
10.5013
10.5286
10.5605
10.5943
10.627
10.6592
10.6936
10.7302
10.7668
10.7966
10.816
10.8277
10.8421
10.8675
10.9002
10.9365
10.9725
11.0008
11.0199
11.0327
11.0511
11.0831
11.1206
11.1553
11.1828
11.2015
11.2149
11.2282
11.2456
11.2698
11.2986
11.3276
11.3541
11.3787
11.3994
11.4147
11.4266
11.4397
11.4584
11.4841
11.5138
11.5418
11.5638
11.579
11.5901
11.602
11.6192
11.6419
11.6662
11.6879
11.7053
11.7195
11.7324
11.7444
11.7536
11.7611
11.7716
11.7875
11.8109
11.8406
11.8701
11.8874
11.8876
11.8788
11.8715
11.8768
11.897
11.9277
11.9549
11.9671
11.9641
11.9571
11.957
11.9701
11.9906
12.0047
12.0067
12.0004
11.9952
11.9979
12.0092
12.0271
12.0377
12.036
12.0318
12.0302
12.0341
12.0412
1
1
1
1
1
1
1
1
1
1
1
1
1
1
1
1
1
1
1
1
1
1
1
1
1
1
1
1
1
1
1
1
1
1
1
1
1
1
1
1
1
1
1
1
1
1
1
1
1
1
1
1
1
1
1
1
1
1
1
1
1
1
1
1
1
1
1
1
1
1
1
1
1
1
1
1
1
1
1
1
1
1
1
1
1
1
1
1
1
1
1
1
1
1
1
1
1
1
4.36069
10.0606
10.3762
10.4012
10.4393
10.4693
10.4979
10.5304
10.567
10.6027
10.6335
10.6601
10.6883
10.7205
10.7547
10.7864
10.8117
10.8334
10.8586
10.8847
10.9083
10.9327
10.9573
10.9811
11.0052
11.0315
11.0661
11.1045
11.1367
11.1591
11.1722
11.1821
11.1972
11.22
11.2477
11.277
11.3028
11.3251
11.3455
11.3681
11.3918
11.4131
11.4307
11.4452
11.4616
11.4831
11.509
11.5356
11.5585
11.5761
11.5895
11.6024
11.6191
11.64
11.6617
11.6815
11.699
11.7159
11.7328
11.7474
11.7563
11.7616
11.7699
11.7843
11.8076
11.8378
11.8671
11.8836
11.8829
11.8745
11.8689
11.8766
11.8986
11.9288
11.9531
11.9626
11.9589
11.9531
11.9555
11.9704
11.99
12.0018
12.0017
11.9953
11.992
11.997
12.0103
12.0276
12.0358
12.0318
12.0266
12.026
12.0319
12.0408
1
1
1
1
1
1
1
1
1
1
1
1
1
1
1
1
1
1
1
1
1
1
1
1
1
1
1
1
1
1
1
1
1
1
1
1
1
1
1
1
1
1
1
1
1
1
1
1
1
1
1
1
1
1
1
1
1
1
1
1
1
1
1
1
1
1
1
1
1
1
1
1
1
1
1
1
1
1
1
1
1
1
1
1
1
1
1
1
1
1
1
1
1
1
1
1
1
1
4.27208
10.0505
10.377
10.3835
10.4165
10.4525
10.491
10.5336
10.5776
10.6163
10.6443
10.6632
10.6796
10.7028
10.7359
10.7744
10.8107
10.846
10.8771
10.8985
10.9116
10.9217
10.9369
10.9615
10.9961
11.0371
11.0819
11.12
11.1435
11.1529
11.1555
11.165
11.188
11.2202
11.2542
11.2823
11.3021
11.3172
11.333
11.3567
11.3863
11.4149
11.4369
11.4507
11.4631
11.48
11.5026
11.5288
11.5543
11.5749
11.59
11.6026
11.6176
11.6359
11.6554
11.6743
11.6932
11.7135
11.7343
11.7504
11.7578
11.7608
11.7673
11.781
11.8048
11.8355
11.8638
11.8787
11.8766
11.8693
11.8665
11.877
11.9009
11.9299
11.9504
11.9567
11.953
11.9492
11.9548
11.9714
11.9891
11.9977
11.9953
11.9895
11.9888
11.9967
12.0122
12.0278
12.0325
12.0267
12.0207
12.0215
12.0296
12.0398
1
1
1
1
1
1
1
1
1
1
1
1
1
1
1
1
1
1
1
1
1
1
1
1
1
1
1
1
1
1
1
1
1
1
1
1
1
1
1
1
1
1
1
1
1
1
1
1
1
1
1
1
1
1
1
1
1
1
1
1
1
1
1
1
1
1
1
1
1
1
1
1
1
1
1
1
1
1
1
1
1
1
1
1
1
1
1
1
1
1
1
1
1
1
1
1
1
1
4.16833
10.0323
10.3778
10.3672
10.3931
10.4329
10.4814
10.5353
10.5865
10.6262
10.6491
10.6595
10.6665
10.684
10.719
10.7651
10.813
10.8581
10.8898
10.9045
10.9056
10.9033
10.9168
10.9501
10.9964
11.0474
11.0939
11.1256
11.1389
11.1378
11.1382
11.1571
11.191
11.2288
11.2625
11.2841
11.296
11.3043
11.3182
11.3464
11.3835
11.4188
11.443
11.4541
11.4623
11.475
11.4954
11.5228
11.5516
11.575
11.5907
11.6019
11.614
11.6295
11.6474
11.6668
11.6888
11.713
11.7363
11.752
11.757
11.7581
11.7635
11.7775
11.8028
11.8339
11.8603
11.8725
11.8688
11.8627
11.8635
11.8775
11.9035
11.9305
11.9465
11.9494
11.9461
11.9452
11.9545
11.9724
11.9872
11.9921
11.988
11.9831
11.9854
11.9966
12.014
12.0272
12.0281
12.0206
12.0142
12.0166
12.0268
12.0385
1
1
1
1
1
1
1
1
1
1
1
1
1
1
1
1
1
1
1
1
1
1
1
1
1
1
1
1
1
1
1
1
1
1
1
1
1
1
1
1
1
1
1
1
1
1
1
1
1
1
1
1
1
1
1
1
1
1
1
1
1
1
1
1
1
1
1
1
1
1
1
1
1
1
1
1
1
1
1
1
1
1
1
1
1
1
1
1
1
1
1
1
1
1
1
1
1
1
4.04119
9.9979
10.3828
10.3606
10.3793
10.4201
10.4747
10.5334
10.5868
10.6252
10.6451
10.6521
10.6571
10.6739
10.7109
10.7618
10.8161
10.8631
10.8918
10.8996
10.892
10.8867
10.9061
10.9507
11.0057
11.0594
11.1
11.1216
11.1252
11.1197
11.1257
11.1591
11.2023
11.2419
11.2699
11.2822
11.2847
11.2879
11.3031
11.3387
11.3835
11.4235
11.4472
11.4547
11.459
11.4689
11.4886
11.5183
11.5503
11.5757
11.5909
11.5992
11.608
11.6209
11.638
11.6597
11.6866
11.7148
11.7386
11.7516
11.7532
11.7527
11.7582
11.7741
11.802
11.8335
11.8568
11.8651
11.8599
11.8549
11.8596
11.8781
11.906
11.9303
11.9416
11.9417
11.9387
11.9412
11.9542
11.9727
11.9844
11.9854
11.9803
11.9769
11.9821
11.9966
12.0151
12.0255
12.0226
12.0135
12.0075
12.0116
12.0235
12.0362
1
1
1
1
1
1
1
1
1
1
1
1
1
1
1
1
1
1
1
1
1
1
1
1
1
1
1
1
1
1
1
1
1
1
1
1
1
1
1
1
1
1
1
1
1
1
1
1
1
1
1
1
1
1
1
1
1
1
1
1
1
1
1
1
1
1
1
1
1
1
1
1
1
1
1
1
1
1
1
1
1
1
1
1
1
1
1
1
1
1
1
1
1
1
1
1
1
1
3.88532
9.94191
10.395
10.3686
10.3811
10.418
10.4711
10.5271
10.5772
10.6141
10.6357
10.6464
10.6552
10.6749
10.7126
10.7632
10.8161
10.8598
10.8844
10.8875
10.8793
10.8795
10.9075
10.9615
11.0188
11.0674
11.0996
11.1102
11.1077
11.1033
11.1197
11.1665
11.2156
11.2531
11.2732
11.2759
11.2715
11.2719
11.2916
11.3347
11.3847
11.4261
11.4479
11.4525
11.4541
11.4629
11.4832
11.5153
11.5496
11.576
11.5899
11.5945
11.5999
11.6108
11.6283
11.6542
11.6865
11.7183
11.7404
11.7489
11.7468
11.7448
11.7515
11.7711
11.8025
11.8342
11.8532
11.8561
11.85
11.8464
11.8551
11.8784
11.9075
11.9288
11.936
11.9338
11.9316
11.9373
11.9534
11.9714
11.9801
11.978
11.9726
11.9712
11.9792
11.9965
12.0149
12.0222
12.0162
12.0061
12.0009
12.0064
12.0197
12.0329
1
1
1
1
1
1
1
1
1
1
1
1
1
1
1
1
1
1
1
1
1
1
1
1
1
1
1
1
1
1
1
1
1
1
1
1
1
1
1
1
1
1
1
1
1
1
1
1
1
1
1
1
1
1
1
1
1
1
1
1
1
1
1
1
1
1
1
1
1
1
1
1
1
1
1
1
1
1
1
1
1
1
1
1
1
1
1
1
1
1
1
1
1
1
1
1
1
1
3.70567
9.86082
10.4002
10.3854
10.3957
10.4242
10.4702
10.5197
10.5646
10.6001
10.6252
10.6429
10.659
10.6825
10.7196
10.7661
10.813
10.8508
10.8711
10.8738
10.8718
10.8816
10.918
10.9734
11.0264
11.0676
11.0909
11.0935
11.0902
11.0928
11.1214
11.1747
11.2235
11.2572
11.2704
11.2666
11.2583
11.2606
11.2863
11.3335
11.3846
11.4249
11.4446
11.4473
11.4483
11.4573
11.4789
11.5129
11.5489
11.5751
11.5869
11.5885
11.5908
11.6
11.619
11.6506
11.6886
11.7226
11.7414
11.7431
11.7376
11.7348
11.744
11.7692
11.8043
11.8347
11.8488
11.8458
11.8387
11.8374
11.8506
11.8785
11.9079
11.9256
11.9292
11.9258
11.9248
11.9334
11.9516
11.9682
11.9742
11.9704
11.9652
11.9657
11.9767
11.9962
12.0131
12.017
12.0093
11.9987
11.9944
12.0012
12.0153
12.0287
1
1
1
1
1
1
1
1
1
1
1
1
1
1
1
1
1
1
1
1
1
1
1
1
1
1
1
1
1
1
1
1
1
1
1
1
1
1
1
1
1
1
1
1
1
1
1
1
1
1
1
1
1
1
1
1
1
1
1
1
1
1
1
1
1
1
1
1
1
1
1
1
1
1
1
1
1
1
1
1
1
1
1
1
1
1
1
1
1
1
1
1
1
1
1
1
1
1
3.51137
9.76697
10.3922
10.3959
10.4109
10.4329
10.4697
10.5111
10.5518
10.5883
10.6185
10.6425
10.6644
10.6905
10.725
10.7659
10.8058
10.8377
10.8564
10.8637
10.8706
10.8899
10.9292
10.9786
11.0239
11.0567
11.0728
11.0764
11.0795
11.0921
11.1283
11.1784
11.2224
11.2516
11.2602
11.2556
11.25
11.2572
11.2871
11.3336
11.382
11.4195
11.4374
11.4401
11.4423
11.4526
11.4756
11.5107
11.5474
11.5727
11.5821
11.5814
11.581
11.5892
11.6109
11.6492
11.6926
11.7257
11.7394
11.7344
11.7256
11.7235
11.737
11.7695
11.8079
11.8343
11.8415
11.8341
11.8263
11.8285
11.8474
11.8788
11.907
11.9206
11.9212
11.9177
11.9185
11.93
11.949
11.9635
11.967
11.9627
11.9583
11.9607
11.9744
11.9951
12.0092
12.0101
12.0017
11.9911
11.9879
11.9956
12.0102
12.0232
1
1
1
1
1
1
1
1
1
1
1
1
1
1
1
1
1
1
1
1
1
1
1
1
1
1
1
1
1
1
1
1
1
1
1
1
1
1
1
1
1
1
1
1
1
1
1
1
1
1
1
1
1
1
1
1
1
1
1
1
1
1
1
1
1
1
1
1
1
1
1
1
1
1
1
1
1
1
1
1
1
1
1
1
1
1
1
1
1
1
1
1
1
1
1
1
1
1
3.30427
9.66155
10.3862
10.4032
10.4222
10.4393
10.4671
10.5015
10.5422
10.582
10.6164
10.6452
10.67
10.695
10.725
10.7598
10.7942
10.8234
10.8441
10.8585
10.8746
10.8998
10.9351
10.9755
11.011
11.0364
11.0525
11.0646
11.0787
11.1009
11.1365
11.1777
11.2133
11.2369
11.2448
11.2447
11.2474
11.2608
11.2922
11.3343
11.3769
11.41
11.4269
11.4316
11.4362
11.4483
11.4725
11.5081
11.5448
11.569
11.5761
11.5732
11.5707
11.5789
11.605
11.6498
11.697
11.7272
11.7333
11.723
11.7114
11.7117
11.7325
11.7723
11.8119
11.8324
11.831
11.8205
11.8132
11.8203
11.8457
11.8793
11.9044
11.9134
11.9119
11.9089
11.9125
11.9267
11.9455
11.9572
11.9586
11.9547
11.9517
11.9566
11.9725
11.9925
12.0035
12.0022
11.9934
11.9836
11.9816
11.99
12.0044
12.0165
1
1
1
1
1
1
1
1
1
1
1
1
1
1
1
1
1
1
1
1
1
1
1
1
1
1
1
1
1
1
1
1
1
1
1
1
1
1
1
1
1
1
1
1
1
1
1
1
1
1
1
1
1
1
1
1
1
1
1
1
1
1
1
1
1
1
1
1
1
1
1
1
1
1
1
1
1
1
1
1
1
1
1
1
1
1
1
1
1
1
1
1
1
1
1
1
1
1
3.08829
9.54235
10.3799
10.4053
10.426
10.4404
10.4625
10.4951
10.5388
10.5824
10.6192
10.6486
10.6722
10.6941
10.72
10.7509
10.7834
10.813
10.8373
10.8579
10.8798
10.9057
10.9359
10.9668
10.9932
11.0156
11.037
11.0593
11.0837
11.112
11.1434
11.1745
11.1995
11.2168
11.2279
11.2363
11.2476
11.2682
11.2993
11.3351
11.3698
11.3975
11.4141
11.4219
11.4294
11.4437
11.4695
11.5055
11.5415
11.5643
11.5689
11.5641
11.5603
11.5697
11.602
11.6524
11.6994
11.7254
11.7236
11.7086
11.696
11.701
11.7314
11.7775
11.8143
11.827
11.8183
11.8052
11.8001
11.8138
11.8459
11.88
11.9
11.904
11.901
11.8996
11.9068
11.9236
11.9411
11.9498
11.9495
11.9463
11.9451
11.9532
11.9708
11.988
11.9957
11.9929
11.9843
11.9761
11.9756
11.9843
11.9979
12.0084
1
1
1
1
1
1
1
1
1
1
1
1
1
1
1
1
1
1
1
1
1
1
1
1
1
1
1
1
1
1
1
1
1
1
1
1
1
1
1
1
1
1
1
1
1
1
1
1
1
1
1
1
1
1
1
1
1
1
1
1
1
1
1
1
1
1
1
1
1
1
1
1
1
1
1
1
1
1
1
1
1
1
1
1
1
1
1
1
1
1
1
1
1
1
1
1
1
1
2.86533
9.40882
10.3755
10.4017
10.4234
10.4378
10.4603
10.4955
10.5422
10.5865
10.6211
10.6469
10.6673
10.6878
10.7134
10.7448
10.7779
10.8078
10.8333
10.8563
10.8797
10.9047
10.9312
10.9562
10.9786
11.0018
11.0285
11.0582
11.0892
11.1194
11.1462
11.1681
11.1847
11.1982
11.2127
11.2292
11.2495
11.2761
11.3059
11.335
11.3618
11.3841
11.3999
11.4104
11.4213
11.4389
11.467
11.5036
11.5381
11.5586
11.5603
11.5539
11.5503
11.563
11.602
11.6557
11.6993
11.7185
11.7104
11.6922
11.6812
11.6936
11.7338
11.783
11.8144
11.818
11.8038
11.7888
11.7879
11.8096
11.847
11.8795
11.8935
11.8929
11.8889
11.8896
11.9011
11.9202
11.9358
11.9412
11.9398
11.9371
11.9386
11.9506
11.9688
11.9822
11.9863
11.9825
11.9746
11.9688
11.9701
11.9788
11.9908
11.999
1
1
1
1
1
1
1
1
1
1
1
1
1
1
1
1
1
1
1
1
1
1
1
1
1
1
1
1
1
1
1
1
1
1
1
1
1
1
1
1
1
1
1
1
1
1
1
1
1
1
1
1
1
1
1
1
1
1
1
1
1
1
1
1
1
1
1
1
1
1
1
1
1
1
1
1
1
1
1
1
1
1
1
1
1
1
1
1
1
1
1
1
1
1
1
1
1
1
2.63331
9.25308
10.3767
10.3951
10.417
10.4337
10.46
10.4996
10.547
10.5886
10.6191
10.6405
10.6585
10.6804
10.7096
10.744
10.7778
10.8063
10.8292
10.8497
10.8717
10.8967
10.9231
10.9487
10.9719
10.9969
11.0255
11.0569
11.0892
11.1193
11.1433
11.1601
11.1727
11.1845
11.201
11.2237
11.2511
11.2815
11.3099
11.3339
11.354
11.3712
11.3852
11.3974
11.412
11.4342
11.4657
11.5029
11.5347
11.5513
11.5495
11.5421
11.5409
11.5596
11.6044
11.6576
11.6956
11.7062
11.6934
11.6746
11.6685
11.6905
11.7385
11.7858
11.8107
11.8066
11.7882
11.7732
11.7778
11.8074
11.8478
11.8766
11.8847
11.881
11.8765
11.8797
11.8956
11.9163
11.9292
11.9316
11.9295
11.9277
11.9327
11.9483
11.9657
11.9749
11.9754
11.9705
11.9644
11.9614
11.9649
11.9734
11.9828
11.9879
1
1
1
1
1
1
1
1
1
1
1
1
1
1
1
1
1
1
1
1
1
1
1
1
1
1
1
1
1
1
1
1
1
1
1
1
1
1
1
1
1
1
1
1
1
1
1
1
1
1
1
1
1
1
1
1
1
1
1
1
1
1
1
1
1
1
1
1
1
1
1
1
1
1
1
1
1
1
1
1
1
1
1
1
1
1
1
1
1
1
1
1
1
1
1
1
1
1
2.39449
9.07018
10.3811
10.3876
10.4092
10.4299
10.4613
10.5035
10.5486
10.5855
10.6108
10.6286
10.6474
10.6742
10.709
10.7468
10.7804
10.8057
10.8234
10.8387
10.8582
10.8843
10.9144
10.945
10.9724
10.999
11.026
11.0535
11.0824
11.1113
11.1352
11.1518
11.1642
11.1759
11.1929
11.2188
11.2505
11.2833
11.3111
11.332
11.3472
11.3593
11.3702
11.3831
11.402
11.4301
11.466
11.5032
11.5306
11.5414
11.5364
11.529
11.5332
11.5604
11.6088
11.6577
11.6873
11.6891
11.6736
11.6574
11.6604
11.6928
11.7434
11.7848
11.8012
11.7919
11.7723
11.7604
11.7711
11.8061
11.8461
11.8699
11.8732
11.8681
11.8641
11.8704
11.8901
11.9111
11.9211
11.9211
11.9184
11.9183
11.9276
11.946
11.9611
11.9662
11.9631
11.9573
11.954
11.9543
11.9603
11.9681
11.9739
11.9755
1
1
1
1
1
1
1
1
1
1
1
1
1
1
1
1
1
1
1
1
1
1
1
1
1
1
1
1
1
1
1
1
1
1
1
1
1
1
1
1
1
1
1
1
1
1
1
1
1
1
1
1
1
1
1
1
1
1
1
1
1
1
1
1
1
1
1
1
1
1
1
1
1
1
1
1
1
1
1
1
1
1
1
1
1
1
1
1
1
1
1
1
1
1
1
1
1
1
2.1593
8.85437
10.3849
10.3845
10.4059
10.4303
10.4642
10.5047
10.5453
10.5773
10.5983
10.6153
10.6386
10.6717
10.7111
10.7501
10.7821
10.8039
10.8162
10.827
10.845
10.8728
10.9076
10.9433
10.9751
11.0023
11.0262
11.0488
11.0728
11.0996
11.1245
11.1434
11.1575
11.1701
11.1869
11.2132
11.2463
11.2807
11.3094
11.3291
11.3408
11.3482
11.3554
11.3685
11.3926
11.4276
11.4675
11.5036
11.5248
11.5278
11.5208
11.5159
11.5283
11.5651
11.6142
11.6546
11.6731
11.667
11.6518
11.643
11.6578
11.6989
11.7469
11.7796
11.7867
11.7741
11.7568
11.7508
11.768
11.8053
11.8416
11.8597
11.8597
11.8547
11.8527
11.8627
11.8848
11.9045
11.9113
11.9097
11.9071
11.9093
11.9232
11.9431
11.955
11.9558
11.9493
11.9431
11.9431
11.9474
11.9559
11.9623
11.9639
11.9617
1
1
1
1
1
1
1
1
1
1
1
1
1
1
1
1
1
1
1
1
1
1
1
1
1
1
1
1
1
1
1
1
1
1
1
1
1
1
1
1
1
1
1
1
1
1
1
1
1
1
1
1
1
1
1
1
1
1
1
1
1
1
1
1
1
1
1
1
1
1
1
1
1
1
1
1
1
1
1
1
1
1
1
1
1
1
1
1
1
1
1
1
1
1
1
1
1
1
1.93995
8.60627
10.3833
10.3847
10.4079
10.4331
10.467
10.5038
10.5389
10.5654
10.5831
10.602
10.6313
10.6695
10.711
10.7495
10.7797
10.7988
10.8078
10.8167
10.8353
10.8647
10.9016
10.9404
10.9747
11.0016
11.0229
11.0419
11.0629
11.0881
11.1139
11.1351
11.1511
11.165
11.182
11.2078
11.2402
11.2749
11.3044
11.324
11.3337
11.3374
11.3418
11.3558
11.3856
11.427
11.4692
11.5015
11.5156
11.5112
11.5028
11.5037
11.5275
11.5726
11.6186
11.6476
11.653
11.6421
11.6298
11.6326
11.661
11.7069
11.7479
11.7696
11.7681
11.7547
11.7428
11.7451
11.7682
11.804
11.8334
11.8453
11.844
11.8406
11.842
11.8565
11.8793
11.8959
11.8994
11.897
11.8954
11.9008
11.9191
11.9389
11.9472
11.944
11.9343
11.9284
11.932
11.9409
11.9513
11.9557
11.9532
11.9471
1
1
1
1
1
1
1
1
1
1
1
1
1
1
1
1
1
1
1
1
1
1
1
1
1
1
1
1
1
1
1
1
1
1
1
1
1
1
1
1
1
1
1
1
1
1
1
1
1
1
1
1
1
1
1
1
1
1
1
1
1
1
1
1
1
1
1
1
1
1
1
1
1
1
1
1
1
1
1
1
1
1
1
1
1
1
1
1
1
1
1
1
1
1
1
1
1
1
1.74052
8.32329
10.3784
10.3866
10.4069
10.4334
10.4669
10.5007
10.531
10.5535
10.5708
10.5933
10.6262
10.6647
10.7043
10.7405
10.769
10.7875
10.7982
10.8105
10.8323
10.8624
10.8967
10.9331
10.9668
10.9935
11.0143
11.0337
11.0547
11.0788
11.1041
11.1256
11.1427
11.1586
11.1768
11.2023
11.2336
11.2675
11.2965
11.3159
11.3243
11.3262
11.3301
11.3472
11.3819
11.4266
11.4689
11.4954
11.5012
11.4929
11.4849
11.4946
11.5308
11.5794
11.6187
11.6357
11.6298
11.6168
11.6101
11.6266
11.668
11.7138
11.745
11.7541
11.7466
11.7352
11.731
11.7421
11.77
11.8014
11.8221
11.8279
11.8268
11.8262
11.8328
11.8517
11.8735
11.8859
11.8862
11.8833
11.8839
11.893
11.9147
11.9334
11.9376
11.9306
11.9185
11.9137
11.9208
11.9343
11.9462
11.9481
11.9415
11.9317
1
1
1
1
1
1
1
1
1
1
1
1
1
1
1
1
1
1
1
1
1
1
1
1
1
1
1
1
1
1
1
1
1
1
1
1
1
1
1
1
1
1
1
1
1
1
1
1
1
1
1
1
1
1
1
1
1
1
1
1
1
1
1
1
1
1
1
1
1
1
1
1
1
1
1
1
1
1
1
1
1
1
1
1
1
1
1
1
1
1
1
1
1
1
1
1
1
1
1.55749
8.00726
10.3756
10.386
10.4062
10.4335
10.4663
10.4976
10.5238
10.544
10.5627
10.5885
10.6223
10.6588
10.6948
10.7274
10.754
10.7744
10.7903
10.8084
10.833
10.8623
10.8938
10.9265
10.9574
10.9826
11.0044
11.0262
11.0482
11.0712
11.0949
11.1154
11.1333
11.152
11.1728
11.1981
11.2273
11.2584
11.2851
11.3034
11.3123
11.3159
11.3235
11.3445
11.3808
11.4242
11.4627
11.4835
11.4832
11.4742
11.471
11.4914
11.5353
11.5822
11.6123
11.6177
11.6062
11.5929
11.5951
11.6262
11.6747
11.7164
11.7371
11.7354
11.7247
11.7167
11.721
11.7417
11.7718
11.7967
11.8078
11.8087
11.8083
11.8116
11.8247
11.8475
11.8668
11.874
11.8718
11.869
11.8722
11.8856
11.9093
11.9262
11.9263
11.9158
11.9024
11.8992
11.9097
11.9271
11.94
11.9394
11.9289
11.9162
1
1
1
1
1
1
1
1
1
1
1
1
1
1
1
1
1
1
1
1
1
1
1
1
1
1
1
1
1
1
1
1
1
1
1
1
1
1
1
1
1
1
1
1
1
1
1
1
1
1
1
1
1
1
1
1
1
1
1
1
1
1
1
1
1
1
1
1
1
1
1
1
1
1
1
1
1
1
1
1
1
1
1
1
1
1
1
1
1
1
1
1
1
1
1
1
1
1
1.38462
7.65404
10.3836
10.3815
10.4007
10.4297
10.4621
10.4921
10.5172
10.5383
10.5598
10.5872
10.6189
10.6512
10.6822
10.7109
10.7369
10.761
10.7836
10.8078
10.8345
10.8621
10.8897
10.9178
10.9459
10.971
10.9957
11.0203
11.0426
11.0633
11.084
11.103
11.1226
11.1462
11.1705
11.1953
11.2209
11.2469
11.2695
11.2869
11.2988
11.3088
11.323
11.3469
11.3809
11.4187
11.4497
11.4645
11.4633
11.4578
11.4643
11.4939
11.5376
11.5775
11.5981
11.596
11.5835
11.5739
11.5874
11.6289
11.6779
11.7125
11.723
11.7152
11.7041
11.7009
11.7138
11.7422
11.7715
11.7884
11.7908
11.7888
11.7892
11.7972
11.8174
11.8429
11.8592
11.8611
11.8569
11.8546
11.8606
11.8781
11.9026
11.9171
11.9136
11.9
11.8865
11.8853
11.8987
11.9191
11.932
11.9291
11.9154
11.9011
1
1
1
1
1
1
1
1
1
1
1
1
1
1
1
1
1
1
1
1
1
1
1
1
1
1
1
1
1
1
1
1
1
1
1
1
1
1
1
1
1
1
1
1
1
1
1
1
1
1
1
1
1
1
1
1
1
1
1
1
1
1
1
1
1
1
1
1
1
1
1
1
1
1
1
1
1
1
1
1
1
1
1
1
1
1
1
1
1
1
1
1
1
1
1
1
1
1
1.22104
7.27901
10.3816
10.3727
10.394
10.4223
10.4539
10.4837
10.5101
10.5344
10.5593
10.5869
10.6153
10.6425
10.6685
10.6942
10.7208
10.749
10.7775
10.8061
10.8335
10.8586
10.8828
10.9079
10.935
10.9619
10.9895
11.0154
11.0362
11.0535
11.0709
11.0894
11.1128
11.1424
11.1702
11.194
11.2145
11.2333
11.2506
11.2683
11.2867
11.3061
11.3272
11.3515
11.3793
11.4071
11.4285
11.4393
11.4425
11.4481
11.4664
11.4993
11.5364
11.5652
11.5764
11.5718
11.5628
11.5631
11.5875
11.6315
11.6749
11.7002
11.7033
11.6944
11.6855
11.6885
11.71
11.7421
11.7671
11.776
11.773
11.7688
11.7704
11.7837
11.8107
11.8373
11.85
11.8476
11.8416
11.84
11.8488
11.8698
11.8941
11.9057
11.8993
11.8837
11.8709
11.8721
11.8878
11.9097
11.9219
11.917
11.9012
11.8867
1
1
1
1
1
1
1
1
1
1
1
1
1
1
1
1
1
1
1
1
1
1
1
1
1
1
1
1
1
1
1
1
1
1
1
1
1
1
1
1
1
1
1
1
1
1
1
1
1
1
1
1
1
1
1
1
1
1
1
1
1
1
1
1
1
1
1
1
1
1
1
1
1
1
1
1
1
1
1
1
1
1
1
1
1
1
1
1
1
1
1
1
1
1
1
1
1
1
1.06669
6.88941
10.3529
10.3645
10.3906
10.4163
10.4424
10.4686
10.4974
10.5289
10.5607
10.5896
10.614
10.6352
10.6561
10.68
10.7079
10.7389
10.7706
10.8011
10.8281
10.8515
10.8741
10.8987
10.9266
10.9558
10.985
11.01
11.0276
11.0412
11.0565
11.0764
11.1049
11.1395
11.1695
11.1911
11.2057
11.2172
11.2305
11.2512
11.2785
11.3072
11.3327
11.3543
11.3731
11.3888
11.4014
11.4122
11.4256
11.4461
11.4736
11.5036
11.5299
11.5453
11.5492
11.5468
11.5461
11.5601
11.5927
11.6324
11.6652
11.6808
11.6803
11.6739
11.6705
11.6812
11.7085
11.7394
11.7576
11.7598
11.754
11.7489
11.7525
11.7717
11.8038
11.8299
11.8387
11.8334
11.826
11.8254
11.8367
11.8606
11.8838
11.8922
11.8837
11.8673
11.856
11.8595
11.8768
11.8987
11.9093
11.9031
11.8863
11.8732
1
1
1
1
1
1
1
1
1
1
1
1
1
1
1
1
1
1
1
1
1
1
1
1
1
1
1
1
1
1
1
1
1
1
1
1
1
1
1
1
1
1
1
1
1
1
1
1
1
1
1
1
1
1
1
1
1
1
1
1
1
1
1
1
1
1
1
1
1
1
1
1
1
1
1
1
1
1
1
1
1
1
1
1
1
1
1
1
1
1
1
1
1
1
1
1
1
1
1.00225
6.4577
10.285
10.3437
10.3755
10.4042
10.4303
10.4564
10.4876
10.5229
10.5573
10.5862
10.6086
10.6272
10.6462
10.6698
10.699
10.7316
10.7646
10.795
10.8207
10.8427
10.8651
10.8907
10.9199
10.9504
10.9793
11.0021
11.0167
11.0282
11.0437
11.0666
11.0992
11.136
11.1657
11.1839
11.193
11.1996
11.2124
11.239
11.2745
11.3089
11.335
11.3512
11.3598
11.3656
11.3733
11.3891
11.4163
11.4488
11.4794
11.503
11.516
11.5201
11.5208
11.5233
11.5363
11.5636
11.5978
11.6289
11.6487
11.6558
11.6556
11.654
11.6596
11.6791
11.7078
11.7323
11.7431
11.7409
11.7338
11.7296
11.7366
11.7616
11.7966
11.8207
11.8256
11.8182
11.8101
11.8108
11.8244
11.8502
11.8716
11.8767
11.8669
11.8508
11.8418
11.8474
11.8655
11.8858
11.8944
11.8874
11.8709
11.8603
1
1
1
1
1
1
1
1
1
1
1
1
1
1
1
1
1
1
1
1
1
1
1
1
1
1
1
1
1
1
1
1
1
1
1
1
1
1
1
1
1
1
1
1
1
1
1
1
1
1
1
1
1
1
1
1
1
1
1
1
1
1
1
1
1
1
1
1
1
1
1
1
1
1
1
1
1
1
1
1
1
1
1
1
1
1
1
1
1
1
1
1
1
1
1
1
1
1
1.00001
5.93146
10.2178
10.3225
10.3591
10.3911
10.4193
10.4486
10.4822
10.5183
10.5518
10.5795
10.6016
10.6205
10.6399
10.6638
10.693
10.7247
10.7565
10.7854
10.8097
10.832
10.8564
10.8842
10.9144
10.9445
10.9711
10.9907
11.0032
11.0154
11.034
11.0611
11.0956
11.1309
11.1571
11.1708
11.1764
11.1822
11.2006
11.2345
11.2738
11.308
11.3302
11.3383
11.3389
11.34
11.3493
11.3755
11.4135
11.4513
11.4794
11.4937
11.4954
11.4935
11.4946
11.5064
11.5337
11.5682
11.5989
11.6185
11.6262
11.6282
11.6303
11.6372
11.6542
11.6793
11.7049
11.7206
11.7242
11.7196
11.7129
11.7113
11.723
11.7531
11.7882
11.8091
11.8106
11.8017
11.7937
11.796
11.812
11.8385
11.8577
11.8596
11.8487
11.8342
11.8282
11.8358
11.8539
11.8712
11.8772
11.8701
11.855
11.8479
1
1
1
1
1
1
1
1
1
1
1
1
1
1
1
1
1
1
1
1
1
1
1
1
1
1
1
1
1
1
1
1
1
1
1
1
1
1
1
1
1
1
1
1
1
1
1
1
1
1
1
1
1
1
1
1
1
1
1
1
1
1
1
1
1
1
1
1
1
1
1
1
1
1
1
1
1
1
1
1
1
1
1
1
1
1
1
1
1
1
1
1
1
1
1
1
1
1
1
5.3705
10.1415
10.3043
10.3453
10.3811
10.4125
10.4416
10.4737
10.5076
10.5398
10.5684
10.5931
10.6156
10.6383
10.6629
10.69
10.7186
10.7468
10.7731
10.7967
10.8209
10.849
10.8795
10.9099
10.9378
10.9606
10.9761
10.9878
11.0037
11.0281
11.0591
11.093
11.1234
11.1429
11.1515
11.1566
11.1675
11.1964
11.2363
11.2748
11.3033
11.3164
11.3161
11.3132
11.3166
11.3359
11.3723
11.4134
11.4486
11.4697
11.4742
11.4705
11.4675
11.4746
11.4991
11.535
11.5693
11.5923
11.6001
11.6003
11.601
11.6079
11.6256
11.6519
11.6786
11.6974
11.7043
11.7028
11.6969
11.692
11.6943
11.712
11.7454
11.7783
11.7952
11.7937
11.7839
11.7768
11.7811
11.7995
11.8257
11.842
11.841
11.8294
11.8174
11.8149
11.8245
11.8415
11.8549
11.8582
11.8513
11.8387
11.8353
1
1
1
1
1
1
1
1
1
1
1
1
1
1
1
1
1
1
1
1
1
1
1
1
1
1
1
1
1
1
1
1
1
1
1
1
1
1
1
1
1
1
1
1
1
1
1
1
1
1
1
1
1
1
1
1
1
1
1
1
1
1
1
1
1
1
1
1
1
1
1
1
1
1
1
1
1
1
1
1
1
1
1
1
1
1
1
1
1
1
1
1
1
1
1
1
1
1
1
4.78975
10.0398
10.2896
10.3329
10.3733
10.4075
10.4382
10.4665
10.4954
10.5262
10.5567
10.5851
10.6114
10.6364
10.6607
10.6853
10.71
10.7346
10.7591
10.7838
10.8122
10.8442
10.8764
10.9055
10.9297
10.9471
10.9578
10.9708
10.9935
11.0245
11.0582
11.0894
11.1126
11.1237
11.1278
11.1358
11.158
11.1974
11.2394
11.2729
11.2911
11.2926
11.2876
11.2867
11.3008
11.3339
11.3751
11.4128
11.439
11.4494
11.4473
11.4431
11.4464
11.4655
11.4996
11.5362
11.5638
11.5758
11.5754
11.5731
11.5766
11.5918
11.619
11.6495
11.6732
11.684
11.6843
11.6796
11.674
11.6721
11.6791
11.7027
11.7376
11.7667
11.7789
11.7747
11.7646
11.7592
11.7661
11.7871
11.8118
11.8243
11.8208
11.8093
11.8002
11.8015
11.8134
11.8282
11.8372
11.8377
11.8314
11.8218
11.822
1
1
1
1
1
1
1
1
1
1
1
1
1
1
1
1
1
1
1
1
1
1
1
1
1
1
1
1
1
1
1
1
1
1
1
1
1
1
1
1
1
1
1
1
1
1
1
1
1
1
1
1
1
1
1
1
1
1
1
1
1
1
1
1
1
1
1
1
1
1
1
1
1
1
1
1
1
1
1
1
1
1
1
1
1
1
1
1
1
1
1
1
1
1
1
1
1
1
1
4.2062
9.89977
10.284
10.3245
10.3669
10.4028
10.4336
10.46
10.4867
10.5162
10.5478
10.5784
10.6062
10.6319
10.6554
10.6773
10.699
10.7217
10.7461
10.7734
10.8052
10.8398
10.8721
10.8986
10.918
10.9305
10.939
10.9567
10.9868
11.0228
11.0576
11.0856
11.1
11.1012
11.1026
11.1178
11.1526
11.1981
11.2386
11.2639
11.2708
11.2646
11.2583
11.2664
11.2956
11.337
11.3771
11.4066
11.4206
11.4207
11.4168
11.4182
11.4343
11.4661
11.5024
11.5329
11.5492
11.5504
11.547
11.5469
11.5578
11.583
11.6152
11.6443
11.6615
11.6653
11.6622
11.6563
11.6524
11.6537
11.6661
11.6941
11.7284
11.7528
11.76
11.7535
11.7438
11.7412
11.7514
11.7747
11.7968
11.8048
11.7989
11.7883
11.7827
11.7881
11.802
11.8139
11.8182
11.8158
11.8105
11.8044
11.8079
1
1
1
1
1
1
1
1
1
1
1
1
1
1
1
1
1
1
1
1
1
1
1
1
1
1
1
1
1
1
1
1
1
1
1
1
1
1
1
1
1
1
1
1
1
1
1
1
1
1
1
1
1
1
1
1
1
1
1
1
1
1
1
1
1
1
1
1
1
1
1
1
1
1
1
1
1
1
1
1
1
1
1
1
1
1
1
1
1
1
1
1
1
1
1
1
1
1
1
3.62825
9.71201
10.2926
10.3236
10.3602
10.3945
10.4274
10.4549
10.4799
10.5083
10.5396
10.57
10.5976
10.6232
10.647
10.6682
10.6887
10.7117
10.7374
10.7659
10.7985
10.8325
10.8628
10.8861
10.9022
10.9133
10.9249
10.949
10.9837
11.0207
11.053
11.0733
11.0777
11.0747
11.083
11.1096
11.1507
11.1957
11.2307
11.2466
11.2434
11.2342
11.235
11.2571
11.2965
11.3389
11.3732
11.3914
11.3938
11.3894
11.388
11.4009
11.4317
11.4693
11.5023
11.5216
11.5255
11.521
11.5178
11.5246
11.5467
11.579
11.6103
11.6333
11.6435
11.643
11.6387
11.6339
11.6325
11.6371
11.6545
11.6849
11.7171
11.7364
11.7389
11.7307
11.722
11.723
11.7371
11.7621
11.7805
11.7834
11.7755
11.7663
11.7649
11.7746
11.7896
11.7983
11.7983
11.793
11.7887
11.7862
11.7925
1
1
1
1
1
1
1
1
1
1
1
1
1
1
1
1
1
1
1
1
1
1
1
1
1
1
1
1
1
1
1
1
1
1
1
1
1
1
1
1
1
1
1
1
1
1
1
1
1
1
1
1
1
1
1
1
1
1
1
1
1
1
1
1
1
1
1
1
1
1
1
1
1
1
1
1
1
1
1
1
1
1
1
1
1
1
1
1
1
1
1
1
1
1
1
1
1
1
1
3.07224
9.46207
10.3038
10.3286
10.361
10.3908
10.4207
10.4479
10.4732
10.5016
10.5328
10.5625
10.5888
10.6128
10.6367
10.6588
10.6809
10.7056
10.7324
10.7604
10.7907
10.8215
10.8481
10.8691
10.8859
10.9009
10.9193
10.9476
10.9815
11.0133
11.0377
11.0496
11.0501
11.0555
11.0766
11.1109
11.1517
11.1904
11.213
11.2169
11.2108
11.2083
11.2238
11.2573
11.2976
11.3346
11.3586
11.3658
11.3622
11.3585
11.3666
11.3943
11.4331
11.4697
11.4938
11.501
11.4962
11.49
11.4919
11.5096
11.5414
11.5752
11.6011
11.6158
11.6203
11.6187
11.6155
11.6133
11.6145
11.6225
11.6434
11.6743
11.7029
11.7173
11.7156
11.7064
11.6997
11.7049
11.7234
11.7482
11.7625
11.7605
11.7508
11.7434
11.7465
11.7608
11.776
11.7811
11.7772
11.7694
11.7663
11.7671
11.7758
1
1
1
1
1
1
1
1
1
1
1
1
1
1
1
1
1
1
1
1
1
1
1
1
1
1
1
1
1
1
1
1
1
1
1
1
1
1
1
1
1
1
1
1
1
1
1
1
1
1
1
1
1
1
1
1
1
1
1
1
1
1
1
1
1
1
1
1
1
1
1
1
1
1
1
1
1
1
1
1
1
1
1
1
1
1
1
1
1
1
1
1
1
1
1
1
1
1
1
2.56666
9.13141
10.3218
10.3332
10.3579
10.3831
10.4125
10.4404
10.4675
10.4966
10.5277
10.5563
10.58
10.6009
10.6242
10.6485
10.6737
10.7011
10.729
10.7556
10.7815
10.8077
10.8312
10.8525
10.8735
10.8948
10.919
10.9473
10.9747
10.9965
11.0112
11.0198
11.028
11.0499
11.0824
11.1182
11.1518
11.1744
11.1814
11.1798
11.1807
11.1953
11.225
11.2612
11.2958
11.3221
11.3335
11.3325
11.3293
11.3345
11.3574
11.3941
11.4328
11.4624
11.4752
11.4728
11.4651
11.4618
11.473
11.5017
11.5372
11.5671
11.5853
11.5927
11.5945
11.5944
11.594
11.5947
11.5982
11.6089
11.6315
11.6614
11.6858
11.6952
11.6904
11.6813
11.6776
11.6873
11.7099
11.7329
11.742
11.7358
11.7252
11.7204
11.7277
11.7459
11.7607
11.7624
11.7551
11.7455
11.7433
11.747
11.7575
1
1
1
1
1
1
1
1
1
1
1
1
1
1
1
1
1
1
1
1
1
1
1
1
1
1
1
1
1
1
1
1
1
1
1
1
1
1
1
1
1
1
1
1
1
1
1
1
1
1
1
1
1
1
1
1
1
1
1
1
1
1
1
1
1
1
1
1
1
1
1
1
1
1
1
1
1
1
1
1
1
1
1
1
1
1
1
1
1
1
1
1
1
1
1
1
1
1
1
2.10965
8.71406
10.3193
10.3408
10.3633
10.383
10.4074
10.4335
10.4613
10.4906
10.5207
10.5479