/*--------------------------------*- C++ -*----------------------------------*\
  =========                 |
  \\      /  F ield         | OpenFOAM: The Open Source CFD Toolbox
   \\    /   O peration     | Website:  https://openfoam.org
    \\  /    A nd           | Version:  7
     \\/     M anipulation  |
\*---------------------------------------------------------------------------*/
FoamFile
{
    version     2.0;
    format      ascii;
    class       volScalarField;
    location    "3.9";
    object      rho;
}
// * * * * * * * * * * * * * * * * * * * * * * * * * * * * * * * * * * * * * //

dimensions      [1 -3 0 0 0 0 0];

internalField   nonuniform List<scalar> 
258048
(
1.40001
1.40001
1.40001
1.40001
1.40001
1.40001
1.40001
1.40001
1.40001
1.40001
1.40001
1.40001
1.40001
1.40001
1.40001
1.40001
1.40001
1.40001
1.40001
1.40001
1.40001
1.40001
1.40001
1.40001
1.40001
1.40001
1.40001
1.40001
1.40001
1.40001
1.40001
1.40001
1.40001
1.40001
1.40001
1.40001
1.40001
1.40001
1.40001
1.40001
1.40001
1.40001
1.40001
1.40001
1.40001
1.40001
1.40001
1.40001
1.40001
1.40001
1.40001
1.40001
1.40001
1.40001
1.40001
1.40001
1.40001
1.40001
1.40001
1.40001
1.40001
1.40001
1.40001
1.40001
1.40001
1.40001
1.40001
1.40001
1.40001
1.40001
1.40001
1.40001
1.40001
1.40001
1.40001
1.40001
1.40001
1.40001
1.40001
1.40001
1.40001
1.40001
1.40001
1.40001
1.40001
1.40001
1.40001
1.40001
1.40001
1.40001
1.40001
1.40001
1.40001
1.40001
1.40001
1.40001
1.40001
1.40001
3.18438
5.31966
5.39951
5.41065
5.42557
5.44075
5.45684
5.4729
5.48827
5.50183
5.51268
5.52075
5.52723
5.53628
5.54951
5.56254
5.57166
5.5746
5.57386
5.5768
5.58934
5.61138
5.63668
5.6556
5.66286
5.65814
5.6501
5.64842
5.65974
5.68264
5.70823
5.72696
5.73367
5.73233
5.73019
5.73234
5.74091
5.75472
5.76972
5.78175
5.78868
5.79114
5.7918
5.79459
5.80169
5.81324
5.82686
5.83901
5.84734
5.85171
5.85387
5.85659
5.86218
5.87126
5.88209
5.89179
5.89827
5.90169
5.90365
5.90572
5.90892
5.91343
5.91928
5.9264
5.93485
5.94471
5.95492
5.96144
5.9623
5.95923
5.9558
5.95619
5.96203
5.97263
5.98344
5.98921
5.98895
5.98589
5.98447
5.98769
5.99471
6.00069
6.00271
6.00097
5.99854
5.9984
6.0013
6.00702
6.01162
6.01257
6.0111
6.00912
6.00832
6.00889
1.40001
1.40001
1.40001
1.40001
1.40001
1.40001
1.40001
1.40001
1.40001
1.40001
1.40001
1.40001
1.40001
1.40001
1.40001
1.40001
1.40001
1.40001
1.40001
1.40001
1.40001
1.40001
1.40001
1.40001
1.40001
1.40001
1.40001
1.40001
1.40001
1.40001
1.40001
1.40001
1.40001
1.40001
1.40001
1.40001
1.40001
1.40001
1.40001
1.40001
1.40001
1.40001
1.40001
1.40001
1.40001
1.40001
1.40001
1.40001
1.40001
1.40001
1.40001
1.40001
1.40001
1.40001
1.40001
1.40001
1.40001
1.40001
1.40001
1.40001
1.40001
1.40001
1.40001
1.40001
1.40001
1.40001
1.40001
1.40001
1.40001
1.40001
1.40001
1.40001
1.40001
1.40001
1.40001
1.40001
1.40001
1.40001
1.40001
1.40001
1.40001
1.40001
1.40001
1.40001
1.40001
1.40001
1.40001
1.40001
1.40001
1.40001
1.40001
1.40001
1.40001
1.40001
1.40001
1.40001
1.40001
1.40001
3.17564
5.31994
5.40239
5.41272
5.42688
5.44099
5.45608
5.47121
5.48592
5.49951
5.51142
5.52132
5.52943
5.53819
5.54957
5.56121
5.56949
5.57292
5.57403
5.57941
5.59313
5.61367
5.63618
5.65422
5.66226
5.65927
5.65322
5.65312
5.66429
5.68418
5.70596
5.72328
5.73139
5.73227
5.73177
5.73485
5.74333
5.75591
5.76941
5.78092
5.78837
5.79158
5.79298
5.79624
5.8033
5.81426
5.82709
5.83864
5.84684
5.85154
5.85415
5.85722
5.86295
5.8718
5.88217
5.89151
5.89809
5.90191
5.90432
5.90675
5.90985
5.91389
5.91932
5.92627
5.93486
5.9449
5.95514
5.96153
5.96219
5.95912
5.95588
5.95655
5.96262
5.97322
5.98372
5.98916
5.98864
5.98568
5.98454
5.98799
5.99504
6.00083
6.00261
6.00081
5.99851
5.99857
6.00165
6.00743
6.01173
6.01214
6.01045
6.00865
6.00828
6.00921
1.40001
1.40001
1.40001
1.40001
1.40001
1.40001
1.40001
1.40001
1.40001
1.40001
1.40001
1.40001
1.40001
1.40001
1.40001
1.40001
1.40001
1.40001
1.40001
1.40001
1.40001
1.40001
1.40001
1.40001
1.40001
1.40001
1.40001
1.40001
1.40001
1.40001
1.40001
1.40001
1.40001
1.40001
1.40001
1.40001
1.40001
1.40001
1.40001
1.40001
1.40001
1.40001
1.40001
1.40001
1.40001
1.40001
1.40001
1.40001
1.40001
1.40001
1.40001
1.40001
1.40001
1.40001
1.40001
1.40001
1.40001
1.40001
1.40001
1.40001
1.40001
1.40001
1.40001
1.40001
1.40001
1.40001
1.40001
1.40001
1.40001
1.40001
1.40001
1.40001
1.40001
1.40001
1.40001
1.40001
1.40001
1.40001
1.40001
1.40001
1.40001
1.40001
1.40001
1.40001
1.40001
1.40001
1.40001
1.40001
1.40001
1.40001
1.40001
1.40001
1.40001
1.40001
1.40001
1.40001
1.40001
1.40001
3.15932
5.31576
5.40372
5.41443
5.42901
5.44219
5.45523
5.46866
5.48286
5.4969
5.50956
5.52051
5.53027
5.54011
5.55064
5.55994
5.56585
5.56881
5.5719
5.58094
5.59693
5.61662
5.63599
5.65023
5.65644
5.65543
5.65361
5.65857
5.6714
5.688
5.70426
5.71679
5.72372
5.7271
5.7303
5.73653
5.74604
5.75729
5.7682
5.77778
5.78507
5.78957
5.79262
5.79704
5.80447
5.81487
5.82658
5.83711
5.84484
5.84977
5.85307
5.85687
5.86307
5.87174
5.88139
5.88988
5.8962
5.90055
5.90391
5.90725
5.91055
5.91403
5.91869
5.92507
5.93364
5.94403
5.95449
5.9608
5.96113
5.95791
5.95488
5.95606
5.96255
5.97333
5.98346
5.98832
5.98734
5.98439
5.98365
5.98757
5.99479
6.00025
6.00155
5.99956
5.99748
5.99799
6.0015
6.00755
6.01157
6.01127
6.0092
6.00757
6.00767
6.0091
1.40001
1.40001
1.40001
1.40001
1.40001
1.40001
1.40001
1.40001
1.40001
1.40001
1.40001
1.40001
1.40001
1.40001
1.40001
1.40001
1.40001
1.40001
1.40001
1.40001
1.40001
1.40001
1.40001
1.40001
1.40001
1.40001
1.40001
1.40001
1.40001
1.40001
1.40001
1.40001
1.40001
1.40001
1.40001
1.40001
1.40001
1.40001
1.40001
1.40001
1.40001
1.40001
1.40001
1.40001
1.40001
1.40001
1.40001
1.40001
1.40001
1.40001
1.40001
1.40001
1.40001
1.40001
1.40001
1.40001
1.40001
1.40001
1.40001
1.40001
1.40001
1.40001
1.40001
1.40001
1.40001
1.40001
1.40001
1.40001
1.40001
1.40001
1.40001
1.40001
1.40001
1.40001
1.40001
1.40001
1.40001
1.40001
1.40001
1.40001
1.40001
1.40001
1.40001
1.40001
1.40001
1.40001
1.40001
1.40001
1.40001
1.40001
1.40001
1.40001
1.40001
1.40001
1.40001
1.40001
1.40001
1.40001
3.13264
5.31172
5.40233
5.41437
5.42963
5.44194
5.45397
5.46712
5.48192
5.49674
5.50973
5.5207
5.53058
5.54013
5.54955
5.55742
5.56308
5.56764
5.57452
5.58644
5.60137
5.61753
5.63309
5.64479
5.65153
5.65443
5.65832
5.66696
5.67854
5.69053
5.70126
5.70981
5.7167
5.72321
5.73054
5.7394
5.74904
5.75823
5.76657
5.77474
5.7823
5.78851
5.79357
5.79898
5.80618
5.81543
5.82577
5.83543
5.84303
5.84838
5.85247
5.85695
5.86337
5.87172
5.88051
5.88823
5.89435
5.89933
5.90394
5.90829
5.91167
5.91446
5.91831
5.92409
5.93254
5.9432
5.95381
5.96002
5.96009
5.95687
5.95414
5.95596
5.96301
5.97382
5.98335
5.98747
5.98616
5.9834
5.98321
5.98768
5.99492
5.99987
6.00056
5.99841
5.99666
5.99777
6.00185
6.00796
6.01138
6.01023
6.00782
6.00647
6.0071
6.00918
1.40001
1.40001
1.40001
1.40001
1.40001
1.40001
1.40001
1.40001
1.40001
1.40001
1.40001
1.40001
1.40001
1.40001
1.40001
1.40001
1.40001
1.40001
1.40001
1.40001
1.40001
1.40001
1.40001
1.40001
1.40001
1.40001
1.40001
1.40001
1.40001
1.40001
1.40001
1.40001
1.40001
1.40001
1.40001
1.40001
1.40001
1.40001
1.40001
1.40001
1.40001
1.40001
1.40001
1.40001
1.40001
1.40001
1.40001
1.40001
1.40001
1.40001
1.40001
1.40001
1.40001
1.40001
1.40001
1.40001
1.40001
1.40001
1.40001
1.40001
1.40001
1.40001
1.40001
1.40001
1.40001
1.40001
1.40001
1.40001
1.40001
1.40001
1.40001
1.40001
1.40001
1.40001
1.40001
1.40001
1.40001
1.40001
1.40001
1.40001
1.40001
1.40001
1.40001
1.40001
1.40001
1.40001
1.40001
1.40001
1.40001
1.40001
1.40001
1.40001
1.40001
1.40001
1.40001
1.40001
1.40001
1.40001
3.09847
5.30555
5.39954
5.4099
5.42566
5.43901
5.45231
5.46749
5.48416
5.49984
5.51232
5.52136
5.52914
5.53702
5.54535
5.55373
5.56149
5.56972
5.58074
5.59283
5.60422
5.61593
5.62746
5.63765
5.64632
5.6542
5.664
5.6751
5.68481
5.69213
5.6974
5.70256
5.71009
5.72016
5.73126
5.74197
5.75061
5.75739
5.7634
5.77081
5.77947
5.78792
5.79511
5.80108
5.80744
5.81522
5.82415
5.83319
5.84108
5.8473
5.85226
5.85714
5.86342
5.87112
5.87901
5.88603
5.89217
5.89809
5.90413
5.90945
5.91272
5.91468
5.91775
5.923
5.93141
5.94227
5.95281
5.95871
5.95845
5.95538
5.95329
5.95591
5.96361
5.97426
5.98273
5.98587
5.98435
5.982
5.98268
5.9878
5.9947
5.99884
5.99878
5.99661
5.99552
5.99745
6.00225
6.00816
6.01069
6.0087
6.00602
6.00504
6.00631
6.00903
1.40001
1.40001
1.40001
1.40001
1.40001
1.40001
1.40001
1.40001
1.40001
1.40001
1.40001
1.40001
1.40001
1.40001
1.40001
1.40001
1.40001
1.40001
1.40001
1.40001
1.40001
1.40001
1.40001
1.40001
1.40001
1.40001
1.40001
1.40001
1.40001
1.40001
1.40001
1.40001
1.40001
1.40001
1.40001
1.40001
1.40001
1.40001
1.40001
1.40001
1.40001
1.40001
1.40001
1.40001
1.40001
1.40001
1.40001
1.40001
1.40001
1.40001
1.40001
1.40001
1.40001
1.40001
1.40001
1.40001
1.40001
1.40001
1.40001
1.40001
1.40001
1.40001
1.40001
1.40001
1.40001
1.40001
1.40001
1.40001
1.40001
1.40001
1.40001
1.40001
1.40001
1.40001
1.40001
1.40001
1.40001
1.40001
1.40001
1.40001
1.40001
1.40001
1.40001
1.40001
1.40001
1.40001
1.40001
1.40001
1.40001
1.40001
1.40001
1.40001
1.40001
1.40001
1.40001
1.40001
1.40001
1.40001
3.05737
5.30014
5.39997
5.40328
5.41693
5.43232
5.44927
5.46822
5.48767
5.50445
5.51601
5.52249
5.52628
5.531
5.53899
5.54985
5.56161
5.57487
5.58798
5.59801
5.60524
5.61158
5.61964
5.63038
5.64298
5.65626
5.6699
5.68106
5.68769
5.69026
5.69146
5.69629
5.70667
5.72016
5.73345
5.74377
5.75038
5.7546
5.75893
5.76669
5.77753
5.78863
5.79747
5.80312
5.80808
5.81424
5.82195
5.83079
5.83954
5.84689
5.85248
5.85731
5.86301
5.86981
5.87687
5.88355
5.89015
5.89733
5.90475
5.91061
5.91334
5.9145
5.91691
5.92191
5.9305
5.9415
5.9517
5.95703
5.95629
5.95359
5.95249
5.95611
5.96452
5.97472
5.98179
5.98379
5.98226
5.98064
5.98243
5.98818
5.99437
5.99739
5.99654
5.99453
5.99439
5.99734
6.00292
6.00824
6.00956
6.00681
6.00394
6.00346
6.00544
6.00871
1.40001
1.40001
1.40001
1.40001
1.40001
1.40001
1.40001
1.40001
1.40001
1.40001
1.40001
1.40001
1.40001
1.40001
1.40001
1.40001
1.40001
1.40001
1.40001
1.40001
1.40001
1.40001
1.40001
1.40001
1.40001
1.40001
1.40001
1.40001
1.40001
1.40001
1.40001
1.40001
1.40001
1.40001
1.40001
1.40001
1.40001
1.40001
1.40001
1.40001
1.40001
1.40001
1.40001
1.40001
1.40001
1.40001
1.40001
1.40001
1.40001
1.40001
1.40001
1.40001
1.40001
1.40001
1.40001
1.40001
1.40001
1.40001
1.40001
1.40001
1.40001
1.40001
1.40001
1.40001
1.40001
1.40001
1.40001
1.40001
1.40001
1.40001
1.40001
1.40001
1.40001
1.40001
1.40001
1.40001
1.40001
1.40001
1.40001
1.40001
1.40001
1.40001
1.40001
1.40001
1.40001
1.40001
1.40001
1.40001
1.40001
1.40001
1.40001
1.40001
1.40001
1.40001
1.40001
1.40001
1.40001
1.40001
3.00893
5.29211
5.40157
5.39778
5.40819
5.42482
5.44551
5.46858
5.49052
5.50754
5.51715
5.52072
5.52155
5.52468
5.53362
5.54738
5.5634
5.58016
5.5931
5.60035
5.60302
5.60462
5.61192
5.62598
5.64289
5.65998
5.67443
5.68338
5.68642
5.68526
5.68545
5.69355
5.70777
5.72314
5.73622
5.74425
5.74807
5.74998
5.75368
5.76315
5.77675
5.79023
5.79979
5.80438
5.80777
5.81246
5.8194
5.82866
5.83863
5.84697
5.85282
5.85713
5.86181
5.86763
5.87409
5.88094
5.88867
5.89724
5.9056
5.91125
5.91312
5.91361
5.91564
5.92075
5.92987
5.94103
5.95053
5.95492
5.95355
5.95132
5.95152
5.95635
5.96552
5.97499
5.98043
5.98122
5.97983
5.97925
5.98231
5.98853
5.99371
5.99539
5.99394
5.99224
5.99319
5.9973
6.00354
6.00808
6.00801
6.00456
6.00164
6.00177
6.00447
6.00823
1.40001
1.40001
1.40001
1.40001
1.40001
1.40001
1.40001
1.40001
1.40001
1.40001
1.40001
1.40001
1.40001
1.40001
1.40001
1.40001
1.40001
1.40001
1.40001
1.40001
1.40001
1.40001
1.40001
1.40001
1.40001
1.40001
1.40001
1.40001
1.40001
1.40001
1.40001
1.40001
1.40001
1.40001
1.40001
1.40001
1.40001
1.40001
1.40001
1.40001
1.40001
1.40001
1.40001
1.40001
1.40001
1.40001
1.40001
1.40001
1.40001
1.40001
1.40001
1.40001
1.40001
1.40001
1.40001
1.40001
1.40001
1.40001
1.40001
1.40001
1.40001
1.40001
1.40001
1.40001
1.40001
1.40001
1.40001
1.40001
1.40001
1.40001
1.40001
1.40001
1.40001
1.40001
1.40001
1.40001
1.40001
1.40001
1.40001
1.40001
1.40001
1.40001
1.40001
1.40001
1.40001
1.40001
1.40001
1.40001
1.40001
1.40001
1.40001
1.40001
1.40001
1.40001
1.40001
1.40001
1.40001
1.40001
2.95012
5.27956
5.40518
5.39664
5.40392
5.42044
5.44307
5.46777
5.49027
5.50662
5.51508
5.51755
5.51807
5.52149
5.53162
5.54729
5.56558
5.58278
5.59427
5.59865
5.59818
5.59847
5.60784
5.62594
5.64603
5.66426
5.67686
5.68241
5.68205
5.67911
5.68133
5.69463
5.71204
5.7278
5.73872
5.74334
5.74387
5.74411
5.74841
5.76069
5.77709
5.79218
5.8014
5.80463
5.80654
5.81027
5.81703
5.82714
5.83826
5.84733
5.85305
5.85631
5.85974
5.86463
5.87083
5.87852
5.88797
5.89798
5.90652
5.91123
5.9119
5.91181
5.91383
5.91961
5.92966
5.94099
5.94938
5.95236
5.95047
5.94863
5.9502
5.95663
5.96646
5.97498
5.97877
5.97851
5.97723
5.97784
5.98225
5.98865
5.99271
5.99299
5.99117
5.99005
5.99204
5.99733
6.00391
6.00751
6.00613
6.00205
5.99924
5.99994
6.00327
6.00743
1.40001
1.40001
1.40001
1.40001
1.40001
1.40001
1.40001
1.40001
1.40001
1.40001
1.40001
1.40001
1.40001
1.40001
1.40001
1.40001
1.40001
1.40001
1.40001
1.40001
1.40001
1.40001
1.40001
1.40001
1.40001
1.40001
1.40001
1.40001
1.40001
1.40001
1.40001
1.40001
1.40001
1.40001
1.40001
1.40001
1.40001
1.40001
1.40001
1.40001
1.40001
1.40001
1.40001
1.40001
1.40001
1.40001
1.40001
1.40001
1.40001
1.40001
1.40001
1.40001
1.40001
1.40001
1.40001
1.40001
1.40001
1.40001
1.40001
1.40001
1.40001
1.40001
1.40001
1.40001
1.40001
1.40001
1.40001
1.40001
1.40001
1.40001
1.40001
1.40001
1.40001
1.40001
1.40001
1.40001
1.40001
1.40001
1.40001
1.40001
1.40001
1.40001
1.40001
1.40001
1.40001
1.40001
1.40001
1.40001
1.40001
1.40001
1.40001
1.40001
1.40001
1.40001
1.40001
1.40001
1.40001
1.40001
2.8786
5.26103
5.41164
5.40116
5.40579
5.42049
5.44221
5.46548
5.48647
5.50203
5.51108
5.5151
5.51733
5.52228
5.5332
5.54911
5.56679
5.58256
5.59235
5.59468
5.59374
5.59577
5.60837
5.62952
5.65045
5.66708
5.67693
5.67886
5.67637
5.67379
5.67973
5.6979
5.71716
5.73185
5.73977
5.74091
5.73902
5.73844
5.74453
5.75966
5.77791
5.79335
5.80179
5.80388
5.80476
5.80808
5.81513
5.82618
5.8382
5.84767
5.85288
5.85476
5.85692
5.86108
5.86746
5.87664
5.88808
5.8994
5.90732
5.91039
5.90971
5.90907
5.91153
5.91864
5.92992
5.94133
5.9482
5.94926
5.94704
5.94569
5.94868
5.95684
5.96709
5.97448
5.9768
5.97581
5.97474
5.97648
5.982
5.98821
5.9912
5.99036
5.9884
5.988
5.99099
5.99733
6.00388
6.00636
6.00388
5.99945
5.99687
5.99804
6.00189
6.00627
1.40001
1.40001
1.40001
1.40001
1.40001
1.40001
1.40001
1.40001
1.40001
1.40001
1.40001
1.40001
1.40001
1.40001
1.40001
1.40001
1.40001
1.40001
1.40001
1.40001
1.40001
1.40001
1.40001
1.40001
1.40001
1.40001
1.40001
1.40001
1.40001
1.40001
1.40001
1.40001
1.40001
1.40001
1.40001
1.40001
1.40001
1.40001
1.40001
1.40001
1.40001
1.40001
1.40001
1.40001
1.40001
1.40001
1.40001
1.40001
1.40001
1.40001
1.40001
1.40001
1.40001
1.40001
1.40001
1.40001
1.40001
1.40001
1.40001
1.40001
1.40001
1.40001
1.40001
1.40001
1.40001
1.40001
1.40001
1.40001
1.40001
1.40001
1.40001
1.40001
1.40001
1.40001
1.40001
1.40001
1.40001
1.40001
1.40001
1.40001
1.40001
1.40001
1.40001
1.40001
1.40001
1.40001
1.40001
1.40001
1.40001
1.40001
1.40001
1.40001
1.40001
1.40001
1.40001
1.40001
1.40001
1.40001
2.79547
5.23407
5.41553
5.40916
5.41262
5.42385
5.44261
5.46308
5.48183
5.49671
5.50701
5.51364
5.5187
5.52555
5.53679
5.55152
5.56716
5.58061
5.58862
5.59056
5.5914
5.59678
5.61222
5.63354
5.65292
5.66698
5.67391
5.67328
5.67065
5.67067
5.68107
5.70152
5.72032
5.7334
5.73872
5.73752
5.73421
5.7345
5.74298
5.75968
5.77828
5.79322
5.80081
5.8021
5.80271
5.8061
5.81366
5.82552
5.8382
5.84763
5.85205
5.85275
5.85376
5.85733
5.86423
5.8755
5.889
5.90111
5.90784
5.90848
5.90657
5.90561
5.90896
5.91805
5.93067
5.94161
5.94673
5.94568
5.9431
5.94258
5.94718
5.95698
5.9673
5.9734
5.97442
5.97302
5.97236
5.97515
5.98141
5.98712
5.9891
5.98764
5.98575
5.98602
5.99012
5.99725
6.00326
6.00454
6.00142
5.99687
5.99456
5.9961
6.00033
6.00476
1.40001
1.40001
1.40001
1.40001
1.40001
1.40001
1.40001
1.40001
1.40001
1.40001
1.40001
1.40001
1.40001
1.40001
1.40001
1.40001
1.40001
1.40001
1.40001
1.40001
1.40001
1.40001
1.40001
1.40001
1.40001
1.40001
1.40001
1.40001
1.40001
1.40001
1.40001
1.40001
1.40001
1.40001
1.40001
1.40001
1.40001
1.40001
1.40001
1.40001
1.40001
1.40001
1.40001
1.40001
1.40001
1.40001
1.40001
1.40001
1.40001
1.40001
1.40001
1.40001
1.40001
1.40001
1.40001
1.40001
1.40001
1.40001
1.40001
1.40001
1.40001
1.40001
1.40001
1.40001
1.40001
1.40001
1.40001
1.40001
1.40001
1.40001
1.40001
1.40001
1.40001
1.40001
1.40001
1.40001
1.40001
1.40001
1.40001
1.40001
1.40001
1.40001
1.40001
1.40001
1.40001
1.40001
1.40001
1.40001
1.40001
1.40001
1.40001
1.40001
1.40001
1.40001
1.40001
1.40001
1.40001
1.40001
2.7039
5.20203
5.41446
5.41455
5.41948
5.42808
5.44314
5.46043
5.47752
5.49274
5.50484
5.51376
5.52098
5.52889
5.53944
5.55249
5.56582
5.57704
5.58435
5.58797
5.59176
5.60052
5.61633
5.63511
5.65166
5.66276
5.66732
5.66731
5.66729
5.67114
5.68456
5.70354
5.72032
5.73157
5.73506
5.73352
5.73127
5.73346
5.74373
5.76032
5.77789
5.79171
5.79847
5.79965
5.80063
5.80446
5.81258
5.82496
5.83801
5.84708
5.85055
5.85042
5.85043
5.85354
5.86144
5.8751
5.89062
5.90241
5.90732
5.90554
5.9024
5.90169
5.90659
5.91826
5.93208
5.9416
5.94423
5.9416
5.93879
5.9395
5.94615
5.9572
5.96708
5.9717
5.97168
5.97017
5.97018
5.97397
5.98051
5.98546
5.98653
5.98489
5.9833
5.98426
5.98933
5.99685
6.00191
6.00213
5.9987
5.99422
5.99226
5.99406
5.99848
6.00281
1.40001
1.40001
1.40001
1.40001
1.40001
1.40001
1.40001
1.40001
1.40001
1.40001
1.40001
1.40001
1.40001
1.40001
1.40001
1.40001
1.40001
1.40001
1.40001
1.40001
1.40001
1.40001
1.40001
1.40001
1.40001
1.40001
1.40001
1.40001
1.40001
1.40001
1.40001
1.40001
1.40001
1.40001
1.40001
1.40001
1.40001
1.40001
1.40001
1.40001
1.40001
1.40001
1.40001
1.40001
1.40001
1.40001
1.40001
1.40001
1.40001
1.40001
1.40001
1.40001
1.40001
1.40001
1.40001
1.40001
1.40001
1.40001
1.40001
1.40001
1.40001
1.40001
1.40001
1.40001
1.40001
1.40001
1.40001
1.40001
1.40001
1.40001
1.40001
1.40001
1.40001
1.40001
1.40001
1.40001
1.40001
1.40001
1.40001
1.40001
1.40001
1.40001
1.40001
1.40001
1.40001
1.40001
1.40001
1.40001
1.40001
1.40001
1.40001
1.40001
1.40001
1.40001
1.40001
1.40001
1.40001
1.40001
2.6052
5.16586
5.41394
5.41814
5.42432
5.431
5.44266
5.45739
5.47459
5.49107
5.50477
5.51539
5.52354
5.5309
5.53982
5.55089
5.56246
5.57294
5.58105
5.58726
5.59436
5.60484
5.61862
5.63379
5.64649
5.655
5.65989
5.6633
5.66765
5.67546
5.68867
5.70416
5.71763
5.72654
5.72959
5.72959
5.73046
5.73504
5.74614
5.76125
5.77664
5.7887
5.79496
5.79678
5.79858
5.80301
5.81165
5.8243
5.83739
5.84607
5.84866
5.8477
5.84693
5.84997
5.85945
5.8755
5.89241
5.90317
5.90534
5.90163
5.89748
5.8976
5.90508
5.91939
5.93364
5.94104
5.94057
5.93684
5.93422
5.93669
5.94567
5.9575
5.96624
5.96924
5.96846
5.96713
5.96811
5.97286
5.97928
5.98326
5.98359
5.98206
5.98095
5.98279
5.98866
5.99593
5.99992
5.99935
5.99575
5.99159
5.99003
5.992
5.99641
6.00043
1.40001
1.40001
1.40001
1.40001
1.40001
1.40001
1.40001
1.40001
1.40001
1.40001
1.40001
1.40001
1.40001
1.40001
1.40001
1.40001
1.40001
1.40001
1.40001
1.40001
1.40001
1.40001
1.40001
1.40001
1.40001
1.40001
1.40001
1.40001
1.40001
1.40001
1.40001
1.40001
1.40001
1.40001
1.40001
1.40001
1.40001
1.40001
1.40001
1.40001
1.40001
1.40001
1.40001
1.40001
1.40001
1.40001
1.40001
1.40001
1.40001
1.40001
1.40001
1.40001
1.40001
1.40001
1.40001
1.40001
1.40001
1.40001
1.40001
1.40001
1.40001
1.40001
1.40001
1.40001
1.40001
1.40001
1.40001
1.40001
1.40001
1.40001
1.40001
1.40001
1.40001
1.40001
1.40001
1.40001
1.40001
1.40001
1.40001
1.40001
1.40001
1.40001
1.40001
1.40001
1.40001
1.40001
1.40001
1.40001
1.40001
1.40001
1.40001
1.40001
1.40001
1.40001
1.40001
1.40001
1.40001
1.40001
2.50105
5.12537
5.41349
5.41958
5.42602
5.43161
5.44118
5.45538
5.47391
5.49199
5.50671
5.51753
5.52511
5.53117
5.53847
5.54803
5.55908
5.56996
5.57958
5.58815
5.59736
5.60781
5.61941
5.63071
5.6398
5.64719
5.65418
5.66173
5.67033
5.68074
5.6924
5.704
5.71325
5.7196
5.7236
5.72662
5.73068
5.73811
5.74934
5.76219
5.77466
5.78464
5.79067
5.79356
5.79633
5.80155
5.81078
5.82363
5.83651
5.84469
5.84638
5.84469
5.84341
5.84687
5.85853
5.87664
5.89348
5.90278
5.9021
5.89665
5.89212
5.89389
5.90482
5.92142
5.93463
5.93924
5.93614
5.93146
5.92965
5.93449
5.94584
5.95785
5.96478
5.966
5.96472
5.96391
5.96614
5.97182
5.97779
5.98064
5.98036
5.97904
5.97859
5.98159
5.98805
5.99437
5.99717
5.99609
5.99253
5.98894
5.98788
5.98993
5.99408
5.99753
1.40001
1.40001
1.40001
1.40001
1.40001
1.40001
1.40001
1.40001
1.40001
1.40001
1.40001
1.40001
1.40001
1.40001
1.40001
1.40001
1.40001
1.40001
1.40001
1.40001
1.40001
1.40001
1.40001
1.40001
1.40001
1.40001
1.40001
1.40001
1.40001
1.40001
1.40001
1.40001
1.40001
1.40001
1.40001
1.40001
1.40001
1.40001
1.40001
1.40001
1.40001
1.40001
1.40001
1.40001
1.40001
1.40001
1.40001
1.40001
1.40001
1.40001
1.40001
1.40001
1.40001
1.40001
1.40001
1.40001
1.40001
1.40001
1.40001
1.40001
1.40001
1.40001
1.40001
1.40001
1.40001
1.40001
1.40001
1.40001
1.40001
1.40001
1.40001
1.40001
1.40001
1.40001
1.40001
1.40001
1.40001
1.40001
1.40001
1.40001
1.40001
1.40001
1.40001
1.40001
1.40001
1.40001
1.40001
1.40001
1.40001
1.40001
1.40001
1.40001
1.40001
1.40001
1.40001
1.40001
1.40001
1.40001
2.39168
5.08009
5.41513
5.4195
5.42547
5.43084
5.44054
5.45588
5.4757
5.49427
5.50842
5.51811
5.52452
5.52988
5.53669
5.54618
5.55746
5.56867
5.57898
5.58865
5.59845
5.60856
5.61862
5.62738
5.63465
5.6421
5.65107
5.66157
5.67297
5.68434
5.69448
5.70268
5.70861
5.71329
5.71832
5.72422
5.73163
5.74143
5.75233
5.76287
5.77244
5.78036
5.78596
5.7897
5.79363
5.80001
5.81015
5.82328
5.83566
5.843
5.8436
5.84131
5.84003
5.8447
5.85875
5.87805
5.89369
5.90055
5.89757
5.89098
5.88699
5.89142
5.90586
5.92354
5.9348
5.93612
5.93107
5.92571
5.92537
5.93312
5.94636
5.95775
5.96258
5.96218
5.96049
5.96044
5.9642
5.9707
5.97593
5.97762
5.97692
5.97577
5.97626
5.98067
5.98735
5.99231
5.99384
5.99238
5.98914
5.98636
5.98589
5.98796
5.99154
5.99415
1.40001
1.40001
1.40001
1.40001
1.40001
1.40001
1.40001
1.40001
1.40001
1.40001
1.40001
1.40001
1.40001
1.40001
1.40001
1.40001
1.40001
1.40001
1.40001
1.40001
1.40001
1.40001
1.40001
1.40001
1.40001
1.40001
1.40001
1.40001
1.40001
1.40001
1.40001
1.40001
1.40001
1.40001
1.40001
1.40001
1.40001
1.40001
1.40001
1.40001
1.40001
1.40001
1.40001
1.40001
1.40001
1.40001
1.40001
1.40001
1.40001
1.40001
1.40001
1.40001
1.40001
1.40001
1.40001
1.40001
1.40001
1.40001
1.40001
1.40001
1.40001
1.40001
1.40001
1.40001
1.40001
1.40001
1.40001
1.40001
1.40001
1.40001
1.40001
1.40001
1.40001
1.40001
1.40001
1.40001
1.40001
1.40001
1.40001
1.40001
1.40001
1.40001
1.40001
1.40001
1.40001
1.40001
1.40001
1.40001
1.40001
1.40001
1.40001
1.40001
1.40001
1.40001
1.40001
1.40001
1.40001
1.40001
2.27625
5.02716
5.42002
5.41963
5.4242
5.42973
5.44066
5.45768
5.47784
5.49559
5.50855
5.517
5.52269
5.52839
5.53616
5.54639
5.55771
5.56845
5.57809
5.58713
5.59665
5.60685
5.61675
5.62545
5.6327
5.64054
5.6501
5.66131
5.67345
5.68505
5.69438
5.70071
5.70501
5.70879
5.71436
5.72243
5.73252
5.74385
5.75441
5.7632
5.77037
5.77629
5.78108
5.78529
5.79049
5.79852
5.80998
5.82339
5.83481
5.84075
5.84006
5.83736
5.83694
5.84371
5.85989
5.87902
5.89266
5.89642
5.89173
5.88488
5.88262
5.89047
5.90769
5.92467
5.93364
5.93218
5.92561
5.92024
5.92187
5.93244
5.94674
5.95683
5.95956
5.95805
5.95616
5.95698
5.96234
5.96941
5.97367
5.97428
5.9733
5.97245
5.97417
5.97987
5.98627
5.98972
5.98995
5.98813
5.98557
5.98377
5.98399
5.98602
5.98865
5.99016
1.40001
1.40001
1.40001
1.40001
1.40001
1.40001
1.40001
1.40001
1.40001
1.40001
1.40001
1.40001
1.40001
1.40001
1.40001
1.40001
1.40001
1.40001
1.40001
1.40001
1.40001
1.40001
1.40001
1.40001
1.40001
1.40001
1.40001
1.40001
1.40001
1.40001
1.40001
1.40001
1.40001
1.40001
1.40001
1.40001
1.40001
1.40001
1.40001
1.40001
1.40001
1.40001
1.40001
1.40001
1.40001
1.40001
1.40001
1.40001
1.40001
1.40001
1.40001
1.40001
1.40001
1.40001
1.40001
1.40001
1.40001
1.40001
1.40001
1.40001
1.40001
1.40001
1.40001
1.40001
1.40001
1.40001
1.40001
1.40001
1.40001
1.40001
1.40001
1.40001
1.40001
1.40001
1.40001
1.40001
1.40001
1.40001
1.40001
1.40001
1.40001
1.40001
1.40001
1.40001
1.40001
1.40001
1.40001
1.40001
1.40001
1.40001
1.40001
1.40001
1.40001
1.40001
1.40001
1.40001
1.40001
1.40001
2.15601
4.96442
5.42496
5.4195
5.42286
5.42898
5.4415
5.45926
5.47847
5.49459
5.50586
5.51336
5.51975
5.52736
5.53703
5.54814
5.55899
5.5684
5.57617
5.58349
5.59239
5.60319
5.61455
5.62506
5.63362
5.64182
5.65064
5.66047
5.67151
5.68289
5.69231
5.69856
5.70269
5.70621
5.71169
5.7208
5.7325
5.74486
5.75543
5.76327
5.76866
5.77263
5.77616
5.78046
5.78716
5.79737
5.8104
5.82391
5.83377
5.83759
5.83575
5.83301
5.83452
5.8443
5.86181
5.8794
5.88999
5.89056
5.88487
5.87894
5.87995
5.89149
5.90965
5.9245
5.9304
5.92705
5.92006
5.91576
5.91962
5.93208
5.94627
5.9546
5.95556
5.95353
5.95183
5.95374
5.96046
5.96765
5.97087
5.9706
5.96941
5.96913
5.97237
5.97908
5.98464
5.98662
5.9856
5.98341
5.98191
5.98128
5.98231
5.98412
5.98547
5.98571
1.40001
1.40001
1.40001
1.40001
1.40001
1.40001
1.40001
1.40001
1.40001
1.40001
1.40001
1.40001
1.40001
1.40001
1.40001
1.40001
1.40001
1.40001
1.40001
1.40001
1.40001
1.40001
1.40001
1.40001
1.40001
1.40001
1.40001
1.40001
1.40001
1.40001
1.40001
1.40001
1.40001
1.40001
1.40001
1.40001
1.40001
1.40001
1.40001
1.40001
1.40001
1.40001
1.40001
1.40001
1.40001
1.40001
1.40001
1.40001
1.40001
1.40001
1.40001
1.40001
1.40001
1.40001
1.40001
1.40001
1.40001
1.40001
1.40001
1.40001
1.40001
1.40001
1.40001
1.40001
1.40001
1.40001
1.40001
1.40001
1.40001
1.40001
1.40001
1.40001
1.40001
1.40001
1.40001
1.40001
1.40001
1.40001
1.40001
1.40001
1.40001
1.40001
1.40001
1.40001
1.40001
1.40001
1.40001
1.40001
1.40001
1.40001
1.40001
1.40001
1.40001
1.40001
1.40001
1.40001
1.40001
1.40001
2.03531
4.88786
5.42722
5.41957
5.42287
5.43004
5.4431
5.45981
5.47709
5.49129
5.50111
5.50868
5.51717
5.52752
5.53906
5.55036
5.56018
5.56792
5.5736
5.57926
5.58783
5.5996
5.61288
5.6254
5.63557
5.64377
5.65127
5.65917
5.66846
5.67916
5.68908
5.69628
5.70103
5.70469
5.70988
5.71898
5.73118
5.74429
5.75538
5.76294
5.76709
5.76928
5.77131
5.77554
5.78405
5.7968
5.81137
5.82449
5.83215
5.83315
5.83055
5.82868
5.83312
5.84641
5.86414
5.87863
5.88521
5.88294
5.87731
5.87404
5.87923
5.89391
5.91109
5.92283
5.92534
5.92083
5.91463
5.91248
5.91863
5.9319
5.94476
5.95108
5.95089
5.94883
5.94782
5.95107
5.95869
5.96539
5.96748
5.96662
5.96541
5.96596
5.97087
5.97807
5.98245
5.98293
5.98065
5.97837
5.97805
5.97881
5.98074
5.98205
5.98194
5.98077
1.40001
1.40001
1.40001
1.40001
1.40001
1.40001
1.40001
1.40001
1.40001
1.40001
1.40001
1.40001
1.40001
1.40001
1.40001
1.40001
1.40001
1.40001
1.40001
1.40001
1.40001
1.40001
1.40001
1.40001
1.40001
1.40001
1.40001
1.40001
1.40001
1.40001
1.40001
1.40001
1.40001
1.40001
1.40001
1.40001
1.40001
1.40001
1.40001
1.40001
1.40001
1.40001
1.40001
1.40001
1.40001
1.40001
1.40001
1.40001
1.40001
1.40001
1.40001
1.40001
1.40001
1.40001
1.40001
1.40001
1.40001
1.40001
1.40001
1.40001
1.40001
1.40001
1.40001
1.40001
1.40001
1.40001
1.40001
1.40001
1.40001
1.40001
1.40001
1.40001
1.40001
1.40001
1.40001
1.40001
1.40001
1.40001
1.40001
1.40001
1.40001
1.40001
1.40001
1.40001
1.40001
1.40001
1.40001
1.40001
1.40001
1.40001
1.40001
1.40001
1.40001
1.40001
1.40001
1.40001
1.40001
1.40001
1.9201
4.7962
5.42518
5.41965
5.42453
5.43245
5.44517
5.45992
5.47461
5.48654
5.49508
5.50358
5.51473
5.52749
5.5402
5.55143
5.56029
5.5666
5.57073
5.57552
5.5844
5.597
5.61137
5.6253
5.63648
5.64447
5.65079
5.6572
5.66526
5.67541
5.68583
5.69397
5.69945
5.7035
5.70857
5.71735
5.7293
5.74259
5.75408
5.76171
5.76516
5.76602
5.76688
5.77127
5.78183
5.79692
5.81238
5.82419
5.82931
5.82765
5.82451
5.82474
5.83322
5.84951
5.8661
5.87649
5.87839
5.87431
5.8697
5.87059
5.88061
5.89704
5.91169
5.91942
5.91886
5.91404
5.90975
5.91056
5.91883
5.93156
5.94195
5.94603
5.94538
5.94389
5.9441
5.94894
5.95682
5.96244
5.96334
5.96217
5.96133
5.96298
5.96945
5.97662
5.9797
5.97874
5.97529
5.97312
5.97409
5.9765
5.9791
5.97976
5.97817
5.9755
1.40001
1.40001
1.40001
1.40001
1.40001
1.40001
1.40001
1.40001
1.40001
1.40001
1.40001
1.40001
1.40001
1.40001
1.40001
1.40001
1.40001
1.40001
1.40001
1.40001
1.40001
1.40001
1.40001
1.40001
1.40001
1.40001
1.40001
1.40001
1.40001
1.40001
1.40001
1.40001
1.40001
1.40001
1.40001
1.40001
1.40001
1.40001
1.40001
1.40001
1.40001
1.40001
1.40001
1.40001
1.40001
1.40001
1.40001
1.40001
1.40001
1.40001
1.40001
1.40001
1.40001
1.40001
1.40001
1.40001
1.40001
1.40001
1.40001
1.40001
1.40001
1.40001
1.40001
1.40001
1.40001
1.40001
1.40001
1.40001
1.40001
1.40001
1.40001
1.40001
1.40001
1.40001
1.40001
1.40001
1.40001
1.40001
1.40001
1.40001
1.40001
1.40001
1.40001
1.40001
1.40001
1.40001
1.40001
1.40001
1.40001
1.40001
1.40001
1.40001
1.40001
1.40001
1.40001
1.40001
1.40001
1.40001
1.81313
4.68945
5.4205
5.42002
5.42545
5.43447
5.44677
5.45974
5.47199
5.48186
5.48992
5.49974
5.51254
5.52608
5.53875
5.54956
5.55772
5.56339
5.5676
5.57343
5.58334
5.59624
5.61002
5.62347
5.63465
5.64256
5.64853
5.65483
5.66273
5.67249
5.68278
5.69114
5.6971
5.70184
5.70725
5.71578
5.72723
5.74021
5.75161
5.75923
5.76233
5.76257
5.7632
5.76861
5.78085
5.79716
5.81271
5.82249
5.82462
5.82156
5.81851
5.8219
5.83486
5.85238
5.86653
5.87262
5.87043
5.86556
5.86297
5.86872
5.88342
5.89977
5.91088
5.9141
5.91132
5.90721
5.90566
5.90965
5.91959
5.93075
5.93802
5.93991
5.93934
5.93887
5.94084
5.94735
5.95486
5.95897
5.95873
5.95738
5.95728
5.96027
5.96795
5.97468
5.97629
5.97397
5.96965
5.96782
5.97006
5.97412
5.97732
5.97711
5.97398
5.97
1.40001
1.40001
1.40001
1.40001
1.40001
1.40001
1.40001
1.40001
1.40001
1.40001
1.40001
1.40001
1.40001
1.40001
1.40001
1.40001
1.40001
1.40001
1.40001
1.40001
1.40001
1.40001
1.40001
1.40001
1.40001
1.40001
1.40001
1.40001
1.40001
1.40001
1.40001
1.40001
1.40001
1.40001
1.40001
1.40001
1.40001
1.40001
1.40001
1.40001