/*--------------------------------*- C++ -*----------------------------------*\
  =========                 |
  \\      /  F ield         | OpenFOAM: The Open Source CFD Toolbox
   \\    /   O peration     | Website:  https://openfoam.org
    \\  /    A nd           | Version:  7
     \\/     M anipulation  |
\*---------------------------------------------------------------------------*/
FoamFile
{
    version     2.0;
    format      ascii;
    class       volScalarField;
    location    "2.2";
    object      p;
}
// * * * * * * * * * * * * * * * * * * * * * * * * * * * * * * * * * * * * * //

dimensions      [1 -1 -2 0 0 0 0];

internalField   nonuniform List<scalar> 
4032
(
1
1
1
1
1
1
1
1
1
1
1
1
5.64092
10.4983
10.7171
10.8984
11.0926
11.2732
11.4416
11.5935
11.7301
11.8443
11.9332
11.9967
1
1
1
1
1
1
1
1
1
1
1
1
5.47336
10.429
10.6917
10.8738
11.067
11.2429
11.4052
11.5495
11.6782
11.7854
11.8682
11.9291
1
1
1
1
1
1
1
1
1
1
1
1
5.12357
10.3386
10.647
10.8281
11.0204
11.1924
11.3493
11.4861
11.6053
11.7028
11.775
11.8323
1
1
1
1
1
1
1
1
1
1
1
1
4.61862
10.1828
10.5861
10.7638
10.953
11.1186
11.268
11.3961
11.505
11.5892
11.6423
11.6801
1
1
1
1
1
1
1
1
1
1
1
1
3.97366
9.91644
10.4973
10.6694
10.8498
11.0021
11.1345
11.2418
11.328
11.3981
11.4408
11.4966
1
1
1
1
1
1
1
1
1
1
1
1
3.24186
9.51309
10.4259
10.5836
10.7453
10.8739
10.9794
11.0633
11.1301
11.1825
11.1892
11.1499
1
1
1
1
1
1
1
1
1
1
1
1
2.40769
8.86468
10.3737
10.4979
10.6356
10.7367
10.807
10.8489
10.8545
10.7983
10.7153
10.6612
1
1
1
1
1
1
1
1
1
1
1
1
1.57751
8.00432
10.3548
10.3628
10.4886
10.5688
10.5989
10.5941
10.5309
10.4234
10.2695
10.2314
1
1
1
1
1
1
1
1
1
1
1
1
1.04733
6.82157
10.2579
10.1916
10.2748
10.3216
10.3193
10.2729
10.1253
9.84398
9.06944
7.18532
1
1
1
1
1
1
1
1
1
1
1
1
1.00019
5.2074
9.72321
9.92832
10.0213
10.0392
10.0027
9.90337
9.66673
9.19589
8.38239
6.33824
1
1
1
1
1
1
1
1
1
1
1
1
0.999998
3.50146
9.09378
9.81394
9.85622
9.82304
9.73444
9.556
9.24599
8.67205
7.81905
5.91778
1
1
1
1
1
1
1
1
1
1
1
1
1
1.94039
8.15002
9.74741
9.67679
9.59363
9.45652
9.21915
8.852
8.28069
7.35121
5.80608
1
1
1
1
1
1
1
1
1
1
1
1
1
1.09508
6.4322
9.43833
9.42097
9.33545
9.17591
8.91309
8.52141
7.96338
7.05064
5.86879
1
1
1
1
1
1
1
1
1
1
1
1
1
1.00056
4.16652
8.90511
9.25079
9.16119
8.95667
8.66566
8.25953
7.70233
6.87029
5.93364
1
1
1
1
1
1
1
1
1
1
1
1
1
0.999995
1.95106
8.02153
9.21458
8.96078
8.7237
8.42209
8.03249
7.48806
6.77701
6.00727
1
1
1
1
1
1
1
1
1
1
1
1
1
0.999999
1.0766
6.13616
8.86691
8.60192
8.45515
8.1941
7.83074
7.33528
6.72383
6.05951
1
1
1
1
1
1
1
1
1
1
1
1
1
1
1.0003
3.36602
8.14161
8.45194
8.33589
8.08769
7.71684
7.24069
6.68838
6.1103
1
1
1
1
1
1
1
1
1
1
1
1
1
1
0.999998
1.36424
6.61351
8.48677
8.26345
7.96933
7.59887
7.15456
6.65542
6.14146
1
1
1
1
1
1
1
1
1
1
1
1
1
1
1
1.01091
4.00139
7.91379
8.09009
7.81587
7.48278
7.07734
6.6281
6.16117
1
1
1
1
1
1
1
1
1
1
1
1
1
1
1
0.999999
1.57101
6.5524
8.0931
7.74687
7.41222
7.02366
6.61089
6.18036
1
1
1
1
1
1
1
1
1
1
1
1
1
1
1
0.999999
1.02584
3.98719
7.59845
7.61261
7.3046
6.95326
6.5795
6.19551
1
1
1
1
1
1
1
1
1
1
1
1
1
1
1
1
1.00009
1.57957
6.08146
7.6115
7.26745
6.95527
6.60747
6.24559
1
1
1
1
1
1
1
1
1
1
1
1
1
1
1
1
1
1.02603
3.23601
7.00641
7.23684
6.92959
6.60592
6.26176
1
1
1
1
1
1
1
1
1
1
1
1
1
1
1
1
1
1.00017
1.34432
5.20182
7.29429
6.95282
6.63375
6.29508
1
1
1
1
1
1
1
1
1
1
1
1
1
1
1
1
1
1
1.01009
2.33521
6.21389
6.95306
6.6128
6.29426
1
1
1
1
1
1
1
1
1
1
1
1
1
1
1
1
1
1
1.00006
1.12619
3.84606
6.6412
6.64948
6.35682
1
1
1
1
1
1
1
1
1
1
1
1
1
1
1
1
1
1
1
1.00207
1.57486
5.05644
6.63563
6.42007
1
1
1
1
1
1
1
1
1
1
1
1
1
1
1
1
1
1
1
1.00001
1.02691
2.36259
5.71199
6.4236
1
1
1
1
1
1
1
1
1
1
1
1
1
1
1
1
1
1
1
1
1.00026
1.13473
3.32773
5.92525
1
1
1
1
1
1
1
1
1
1
1
1
1
1
1
1
1
1
1
1
1
1.00269
1.39314
4.15866
1
1
1
1
1
1
1
1
1
1
1
1
1
1
1
1
1
1
1
1
1
1.00001
1.01494
1.8094
1
1
1
1
1
1
1
1
1
1
1
1
1
1
1
1
1
1
1
1
1
1
1.00013
1.05355
1
1
1
1
1
1
1
1
1
1
1
1
1
1
1
1
1
1
1
1
1
1
1
1.00078
1
1
1
1
1
1
1
1
1
1
1
1
1
1
1
1
1
1
1
1
1
1
1
1
1
1
1
1
1
1
1
1
1
1
1
1
1
1
1
1
1
1
1
1
1
1
1
1
1
1
1
1
1
1
1
1
1
1
1
1
1
1
1
1
1
1
1
1
1
1
1
1
1
1
1
1
1
1
1
1
1
1
1
1
1
1
1
1
1
1
1
1
1
1
1
1
1
1
1
1
1
1
1
1
1
1
1
1
1
1
1
1
1
1
1
1
1
1
1
1
1
1
1
1
1
1
1
1
1
1
1
1
1
1
1
1
1
1
1
1
1
1
1
1
1
1
1
1
1
1
1
1
1
1
1
1
1
1
1
1
1
1
1
1
1
1
1
1
1.59923
0.411969
0.201486
0.199415
0.219965
0.250615
0.350417
0.489219
0.669057
0.887911
1.02075
1.02803
1.01257
1.04169
1.11411
1.20088
1.28539
1.31017
1.29424
1.25102
1.22496
1.23753
1.26593
1.30291
1.31116
1.30127
1.28075
1.27265
1.27622
1.29209
1.30708
1.30818
1.30115
1.29199
1.28988
1.2921
1.29721
1.31028
1.43792
2.09137
3.89923
6.42125
6.9029
6.59713
6.20733
6.04843
5.88953
5.69661
5.55337
5.43161
5.30081
5.1772
5.0657
4.96823
4.88172
4.78963
4.68948
4.57188
4.42267
4.29333
4.21776
4.15722
4.11578
4.08578
4.02524
3.94977
3.85631
3.71682
3.57662
3.50773
3.46216
3.42617
3.41307
3.40166
3.35852
3.30613
3.22433
3.08576
2.97954
2.93229
2.89567
2.87107
2.85802
2.82915
2.7929
2.74556
2.65537
2.5334
2.46929
2.44081
2.41778
2.40123
2.39369
2.37715
2.35763
2.29164
2.7908
1.38811
0.881481
0.734904
0.627202
0.540091
0.494017
0.497315
0.523171
0.601562
0.69276
0.764167
0.837822
0.898172
0.967173
1.05302
1.12784
1.18472
1.2183
1.22503
1.22818
1.2447
1.25311
1.26755
1.28158
1.28771
1.29017
1.28787
1.28837
1.2898
1.29087
1.29443
1.29765
1.29575
1.29145
1.28796
1.30476
1.41455
1.92932
2.65394
3.21197
4.59779
5.78118
6.13021
6.04678
5.97428
5.79418
5.60905
5.48966
5.3814
5.26306
5.14993
5.04222
4.94707
4.86618
4.78327
4.6914
4.59012
4.45891
4.30802
4.20891
4.14543
4.09522
4.06118
4.01632
3.94782
3.86585
3.75989
3.62466
3.521
3.47051
3.4315
3.40688
3.37928
3.33488
3.28242
3.21334
3.11429
3.0069
2.94163
2.90303
2.87246
2.8465
2.81689
2.78267
2.73795
2.6677
2.57073
2.48822
2.44728
2.42315
2.40279
2.38364
2.36183
2.34245
2.2847
3.70697
2.43392
1.62577
1.24205
1.06736
0.910519
0.731749
0.603496
0.565234
0.584831
0.633995
0.701814
0.789157
0.844451
0.865451
0.919453
0.98887
1.06033
1.14465
1.20617
1.24627
1.2851
1.2873
1.27441
1.26974
1.27653
1.29235
1.30662
1.30832
1.30104
1.28391
1.27399
1.27452
1.27904
1.29278
1.32499
1.48826
1.97192
2.68959
3.10755
3.09226
3.29075
4.24439
5.46399
5.91259
6.02034
5.81678
5.7032
5.5518
5.39714
5.2664
5.1357
5.01544
4.91909
4.83492
4.75279
4.67046
4.58625
4.48758
4.35614
4.22044
4.13628
4.07559
4.0178
3.96098
3.89899
3.83402
3.76825
3.68396
3.56825
3.48444
3.43938
3.39831
3.35273
3.30033
3.23838
3.17217
3.11167
3.04636
2.9719
2.91263
2.87306
2.83681
2.79926
2.75436
2.70139
2.649
2.5964
2.53663
2.47386
2.43004
2.40032
2.37292
2.34482
2.31665
2.25261
4.24181
3.19734
2.42978
1.80016
1.47827
1.32277
1.16103
0.967632
0.79328
0.763707
0.757635
0.741995
0.742114
0.748195
0.754577
0.772784
0.828178
0.898683
0.992081
1.08412
1.14003
1.19441
1.23471
1.24111
1.25204
1.27422
1.30323
1.32695
1.32549
1.30997
1.28124
1.26331
1.25834
1.26592
1.31038
1.4842
2.11164
2.7402
3.08807
3.18223
3.12551
3.10302
3.2059
3.89039
4.8799
5.4569
5.62043
5.71266
5.57679
5.40697
5.24814
5.08963
4.97393
4.88603
4.81233
4.74424
4.67087
4.59103
4.50178
4.39301
4.25809
4.13253
4.05681
3.99965
3.94239
3.88293
3.82522
3.77004
3.7076
3.61587
3.49502
3.41549
3.3679
3.31942
3.26419
3.20424
3.15526
3.11378
3.06806
3.00775
2.93026
2.86308
2.81682
2.77198
2.71813
2.66507
2.62905
2.60016
2.56657
2.51702
2.45219
2.39897
2.36256
2.32823
2.29078
2.22229
4.68484
3.73554
3.03382
2.45218
1.95123
1.63752
1.49705
1.34417
1.15582
0.95117
0.884348
0.858888
0.827014
0.807884
0.792147
0.771585
0.759053
0.769546
0.806665
0.887823
0.986495
1.07497
1.14411
1.17652
1.19389
1.21689
1.25274
1.28232
1.28914
1.28997
1.28188
1.27544
1.2755
1.30908
1.47294
2.1315
2.90158
3.12531
3.16492
3.18729
3.15807
3.1028
3.02134
3.04338
3.40627
4.23284
5.0297
5.37945
5.51439
5.4504
5.27514
5.11973
4.98416
4.8693
4.77988
4.71173
4.65161
4.58044
4.50052
4.4107
4.29797
4.15666
4.03611
3.96902
3.91684
3.87263
3.83083
3.78306
3.72995
3.65511
3.53
3.39083
3.30942
3.25635
3.21249
3.1793
3.15727
3.12773
3.08833
3.0406
2.96486
2.86086
2.77829
2.72239
2.67862
2.6492
2.6259
2.60282
2.57626
2.54121
2.48325
2.40626
2.34829
2.30676
2.26444
2.20033
4.98679
4.15898
3.47591
2.94085
2.45984
2.03771
1.77254
1.63387
1.49686
1.30527
1.10153
1.0165
0.995493
0.973685
0.927527
0.867976
0.821012
0.792682
0.787407
0.795073
0.824495
0.880967
0.952104
1.03176
1.09423
1.14022
1.18766
1.22919
1.25288
1.26257
1.25431
1.25706
1.29488
1.54742
2.11099
3.00061
3.19939
3.21952
3.19542
3.17426
3.12523
3.06897
2.9963
2.92869
2.90457
3.06716
3.68961
4.46131
5.12739
5.25028
5.23671
5.16482
5.00859
4.88301
4.76791
4.68168
4.61721
4.55228
4.48274
4.4102
4.32238
4.20241
4.05306
3.94552
3.8896
3.84547
3.81055
3.76757
3.71601
3.65039
3.54643
3.39605
3.28267
3.22869
3.18983
3.15949
3.14669
3.12665
3.09005
3.05061
2.9839
2.85675
2.73712
2.68322
2.65545
2.63342
2.61877
2.60399
2.58059
2.55262
2.50864
2.42674
2.33108
2.2658
2.23097
2.19049
5.2253
4.50013
3.84963
3.31326
2.88311
2.48731
2.10642
1.86299
1.74197
1.60758
1.44246
1.25661
1.13094
1.08725
1.04424
0.98725
0.933308
0.890871
0.835745
0.813653
0.818501
0.827464
0.845725
0.876234
0.92534
0.985987
1.04408
1.09945
1.14707
1.199
1.21021
1.25002
1.55138
2.31795
2.92402
3.27748
3.27256
3.24544
3.21492
3.14043
3.09099
3.04391
2.98873
2.93445
2.87597
2.81652
2.87276
3.17928
3.86779
4.52007
4.97891
5.03641
4.98866
4.89979
4.7712
4.67032
4.58758
4.51867
4.46394
4.39812
4.32818
4.2359
4.09923
3.94773
3.85902
3.80799
3.76552
3.72489
3.6743
3.61517
3.53622
3.41931
3.29652
3.23065
3.19031
3.15629
3.13369
3.11795
3.08944
3.04711
2.97397
2.84561
2.71804
2.6684
2.64434
2.62335
2.61156
2.60628
2.58639
2.56169
2.52304
2.4322
2.30401
2.23527
2.21531
2.18935
5.38382
4.74771
4.16938
3.62308
3.17795
2.84288
2.50976
2.18138
1.92976
1.79572
1.68495
1.54356
1.39885
1.26241
1.16103
1.11368
1.07816
1.03907
0.978632
0.909437
0.869587
0.857777
0.848321
0.842385
0.847567
0.859827
0.879449
0.918587
0.977151
1.04806
1.14055
1.43379
2.28474
2.9383
3.21139
3.28292
3.28614
3.25859
3.19156
3.1001
3.0533
3.02888
2.98984
2.94232
2.88543
2.79821
2.71946
2.69946
2.82415
3.23637
3.95368
4.51351
4.81162
4.83493
4.75024
4.64276
4.54619
4.47557
4.43507
4.3736
4.313
4.24242
4.13587
3.98571
3.85009
3.77244
3.72043
3.67179
3.62031
3.56861
3.5139
3.44261
3.34579
3.25323
3.19852
3.16072
3.12499
3.08772
3.04322
2.98873
2.92424
2.8402
2.74519
2.67895
2.64894
2.62873
2.61354
2.60177
2.58357
2.55416
2.50603
2.41557
2.29327
2.22958
2.21235
2.18676
5.50688
4.9318
4.413
3.92265
3.46335
3.08901
2.79889
2.50742
2.23572
2.02221
1.84292
1.72139
1.61921
1.50099
1.36961
1.24749
1.18835
1.14449
1.09306
1.03409
0.982658
0.935597
0.892657
0.861531
0.852741
0.856108
0.856537
0.860215
0.874267
0.917818
1.20362
1.98443
2.69728
2.91635
3.04623
3.0814
3.1026
3.09699
3.07507
3.05627
3.01842
2.9964
2.97712
2.93027
2.87013
2.78312
2.68602
2.63777
2.61366
2.63356
2.82836
3.33085
3.98536
4.45777
4.5767
4.53974
4.47834
4.4239
4.3961
4.35363
4.29181
4.22085
4.13588
4.0198
3.87973
3.7632
3.68801
3.63396
3.57975
3.52689
3.48066
3.43512
3.37634
3.29586
3.21355
3.15225
3.10412
3.05694
3.0041
2.94549
2.88517
2.8322
2.78109
2.72127
2.66047
2.62606
2.60237
2.57396
2.53972
2.50262
2.45752
2.39655
2.32389
2.25534
2.22045
2.18747
5.59769
5.0803
4.59609
4.13659
3.72023
3.35047
3.01591
2.73142
2.49581
2.27476
2.07454
1.89443
1.76359
1.65953
1.55251
1.44448
1.35387
1.26966
1.19476
1.14424
1.10775
1.05714
1.00582
0.952966
0.915546
0.89674
0.877858
0.872728
0.894211
1.11115
1.73235
2.39498
2.54539
2.63172
2.67771
2.72617
2.77437
2.82939
2.88225
2.92343
2.91485
2.92698
2.92508
2.88808
2.83626
2.76199
2.68243
2.61308
2.56468
2.54329
2.52386
2.59174
2.83386
3.32498
3.83177
4.23756
4.31519
4.30453
4.3111
4.31487
4.25746
4.19771
4.12012
4.02186
3.89812
3.77004
3.67196
3.61273
3.5611
3.50979
3.46316
3.4198
3.37247
3.30971
3.22514
3.13933
3.07321
3.01844
2.96541
2.91252
2.86775
2.8344
2.80073
2.75401
2.68408
2.613
2.56641
2.53158
2.49581
2.45649
2.41255
2.37327
2.34109
2.29846
2.24649
2.19366
5.67185
5.20481
4.75496
4.31895
3.93505
3.5838
3.24728
2.95297
2.70871
2.48421
2.28974
2.10737
1.9504
1.80697
1.68123
1.59323
1.51225
1.42662
1.33834
1.25981
1.20709
1.15205
1.10609
1.05932
1.01113
0.959516
0.921209
0.927066
1.1062
1.75934
2.28379
2.50239
2.50163
2.48136
2.43506
2.38537
2.36125
2.37586
2.43897
2.55836
2.67794
2.73893
2.77
2.76949
2.75008
2.71098
2.66008
2.60295
2.54077
2.5006
2.47023
2.46547
2.44863
2.51025
2.74049
3.20284
3.69796
3.97064
4.13126
4.15313
4.19064
4.1786
4.11218
4.02885
3.91256
3.77459
3.65825
3.59706
3.55234
3.50699
3.45955
3.4101
3.35905
3.29859
3.21956
3.12483
3.04105
2.97894
2.92941
2.89025
2.86284
2.83756
2.80802
2.7666
2.69766
2.60227
2.53012
2.48716
2.45084
2.41222
2.37937
2.36008
2.34147
2.31871
2.28708
2.21609
5.74044
5.31048
4.88003
4.48377
4.12374
3.76983
3.43476
3.16853
2.91482
2.67794
2.45796
2.29421
2.1341
1.98218
1.83817
1.7343
1.64027
1.55748
1.47277
1.39434
1.32699
1.26329
1.20303
1.16126
1.11166
1.05101
1.05796
1.24251
1.8842
2.48567
2.63494
2.58563
2.50118
2.43532
2.38482
2.34271
2.29864
2.24131
2.20625
2.21951
2.27841
2.33995
2.39471
2.44939
2.50865
2.55298
2.54169
2.52364
2.50128
2.47377
2.44652
2.40728
2.37299
2.35768
2.34522
2.41504
2.65203
3.04261
3.48469
3.73395
3.91093
4.01673
4.05139
4.02082
3.93185
3.8073
3.67393
3.57734
3.52609
3.48809
3.44347
3.39339
3.34302
3.28549
3.20897
3.10842
3.00967
2.94427
2.90273
2.87504
2.85256
2.82801
2.79858
2.75927
2.69723
2.60293
2.50895
2.44885
2.40925
2.38183
2.36447
2.35251
2.34128
2.32504
2.30446
2.23623
5.80094
5.39848
4.99648
4.63096
4.2815
3.93505
3.62189
3.35185
3.09739
2.85602
2.64616
2.46722
2.29414
2.14506
2.00481
1.89323
1.77876
1.68022
1.59524
1.51794
1.44508
1.37519
1.30835
1.24854
1.19659
1.18787
1.38496
2.0729
2.78392
2.87688
2.77777
2.65559
2.55684
2.49103
2.43874
2.38982
2.33766
2.26028
2.18578
2.14711
2.11858
2.10163
2.09772
2.11093
2.13442
2.20287
2.2519
2.29514
2.34006
2.35463
2.33151
2.30273
2.2948
2.30722
2.29795
2.2609
2.22268
2.28398
2.49868
2.89493
3.26687
3.59788
3.78636
3.86359
3.87163
3.82935
3.7227
3.58431
3.49342
3.45358
3.4071
3.36041
3.31749
3.26852
3.19695
3.09198
2.98046
2.91669
2.8832
2.85708
2.83429
2.81137
2.78322
2.74401
2.68462
2.5944
2.49132
2.42581
2.39541
2.37578
2.35897
2.34722
2.33772
2.31946
2.29975
2.23485
5.87223
5.48295
5.10505
4.75742
4.41523
4.07812
3.79417
3.52095
3.26208
3.01172
2.82463
2.63588
2.46198
2.28878
2.15803
2.04042
1.92098
1.81173
1.71474
1.63821
1.5548
1.48721
1.41036
1.33833
1.33705
1.5601
2.30192
3.08297
3.16951
3.04989
2.91177
2.78965
2.69935
2.62709
2.55999
2.49864
2.43753
2.36737
2.27006
2.15359
2.08943
2.05808
2.03733
2.0313
2.03162
2.00914
1.97884
1.97114
1.9765
2.00289
2.04497
2.10181
2.1453
2.16231
2.16987
2.16147
2.14371
2.12503
2.12133
2.18627
2.37389
2.72943
3.10714
3.43183
3.66013
3.70812
3.70031
3.6005
3.47865
3.41863
3.36465
3.31629
3.27425
3.23319
3.17751
3.09069
2.98632
2.90753
2.86098
2.82823
2.80438
2.78444
2.76218
2.72864
2.67461
2.58576
2.47769
2.42163
2.40192
2.38303
2.36163
2.34302
2.32558
2.30819
2.29348
2.22667
5.90132
5.53926
5.19577
4.85876
4.51929
4.2149
3.94526
3.67685
3.40457
3.17758
2.98528
2.78977
2.60985
2.44202
2.31529
2.1747
2.05245
1.93402
1.84588
1.75463
1.66484
1.58144
1.50274
1.49649
1.75467
2.57359
3.37467
3.484
3.35745
3.20183
3.07335
2.95073
2.84442
2.75791
2.68206
2.61336
2.54763
2.47504
2.37976
2.26041
2.15644
2.09669
2.05751
2.02288
1.99071
1.95956
1.93988
1.9057
1.82782
1.77034
1.77048
1.79502
1.84471
1.89292
1.95701
1.99213
2.00506
1.99574
1.99239
1.99165
1.9953
2.05732
2.2467
2.56474
2.94979
3.28636
3.50166
3.49774
3.43547
3.39162
3.34286
3.28531
3.22422
3.17781
3.13258
3.07212
3.0019
2.93624
2.87297
2.81303
2.76908
2.74447
2.72535
2.70053
2.65905
2.58982
2.49836
2.42833
2.3994
2.37928
2.35869
2.33741
2.31358
2.28401
2.24875
2.16723
5.94447
5.60191
5.28196
4.96068
4.62793
4.34583
4.08781
3.82183
3.54525
3.3393
3.13601
2.94544
2.74453
2.59718
2.45656
2.3107
2.18208
2.05731
1.96604
1.86687
1.7691
1.67648
1.67625
1.98275
2.89061
3.71472
3.80172
3.66088
3.49554
3.35568
3.22659
3.09617
2.98574
2.89385
2.81187
2.73529
2.66097
2.58114
2.48379
2.3624
2.2563
2.18813
2.13192
2.07811
2.0291
1.98199
1.93409
1.88275
1.81983
1.74379
1.71309
1.69142
1.66988
1.66447
1.67918
1.7073
1.74062
1.77273
1.78458
1.79635
1.8137
1.82178
1.84257
1.91481
2.10773
2.41438
2.81139
3.14457
3.24763
3.29122
3.30302
3.27917
3.20824
3.13493
3.08227
3.0354
2.99367
2.9474
2.88909
2.82423
2.76922
2.72359
2.68692
2.65786
2.62461
2.5801
2.52067
2.44589
2.38979
2.36307
2.34288
2.32217
2.29684
2.26045
2.21005
2.11836
5.97201
5.65117
5.34499
5.04466
4.74268
4.46362
4.20522
3.93868
3.69118
3.48506
3.27948
3.06707
2.87132
2.73699
2.58575
2.44382
2.29122
2.18222
2.08117
1.9668
1.86056
1.87805
2.26749
3.273
4.07235
4.12359
3.96666
3.78895
3.64546
3.51962
3.38337
3.24482
3.12143
3.01717
2.92554
2.84069
2.75863
2.67556
2.58291
2.46815
2.34736
2.26234
2.20321
2.15094
2.10069
2.04675
1.99017
1.92886
1.85924
1.77885
1.70574
1.65948
1.63114
1.61737
1.59782
1.57461
1.56187
1.55877
1.55973
1.57125
1.58426
1.59176
1.61802
1.64945
1.68045
1.76905
1.94537
2.26296
2.60949
2.8845
3.10384
3.16458
3.12105
3.09074
3.06977
3.03151
2.99307
2.94991
2.8886
2.81853
2.75657
2.70403
2.66175
2.62903
2.59882
2.56425
2.51622
2.44828
2.37459
2.3386
2.31987
2.29829
2.27086
2.23426
2.17595
2.07748
6.04723
5.74189
5.44331
5.1464
4.8573
4.58866
4.32758
4.05656
3.82317
3.61627
3.41215
3.19155
3.01172
2.864
2.70871
2.55996
2.41182
2.30707
2.1893
2.06432
2.10222
2.60798
3.74937
4.47429
4.4831
4.31406
4.12163
3.96193
3.82393
3.68042
3.52733
3.37519
3.24015
3.12831
3.03177
2.94158
2.8534
2.76494
2.67077
2.56339
2.44839
2.35046
2.27622
2.21381
2.15564
2.1003
2.0478
1.99126
1.92491
1.85003
1.76207
1.68141
1.63342
1.59799
1.56576
1.54404
1.52937
1.50954
1.48256
1.46158
1.4362
1.41562
1.4127
1.42543
1.4499
1.47608
1.51345
1.5901
1.75481
2.04586
2.37987
2.74394
2.88279
2.95604
2.95967
2.97037
2.96781
2.95236
2.89361
2.80686
2.73554
2.67782
2.62615
2.59685
2.57759
2.54779
2.50287
2.45003
2.38915
2.32041
2.27283
2.24793
2.22978
2.20435
2.15678
2.07611
6.10827
5.81511
5.52059
5.22655
4.95015
4.68894
4.42483
4.1571
3.9415
3.74143
3.5313
3.30242
3.14286
2.98617
2.83423
2.66823
2.53134
2.41682
2.28968
2.35647
3.02003
4.26759
4.93712
4.8462
4.62619
4.432
4.27936
4.13099
3.97884
3.82021
3.65791
3.49776
3.35507
3.23775
3.13642
3.03988
2.94209
2.84114
2.7377
2.63193
2.52658
2.43121
2.35232
2.28446
2.22023
2.15822
2.0995
2.04304
1.98596
1.92628
1.8558
1.76826
1.68137
1.6171
1.57442
1.54645
1.52108
1.49169
1.46339
1.43814
1.40902
1.36929
1.34104
1.32205
1.31234
1.3112
1.32135
1.33103
1.34417
1.40935
1.56805
1.83898
2.17795
2.51089
2.67638
2.75575
2.8394
2.84294
2.82556
2.78537
2.74911
2.69218
2.63313
2.57839
2.52432
2.49741
2.47542
2.44623
2.3943
2.32015
2.26334
2.22271
2.18078
2.1345
2.11233
2.08084
6.17334
5.87235
5.58701
5.30425
5.03471
4.77936
4.52398
4.2752
4.05453
3.85626
3.642
3.43491
3.2721
3.11413
2.94811
2.77257
2.64976
2.52389
2.6474
3.53922
4.92257
5.4677
5.32053
5.03805
4.78041
4.58783
4.43501
4.28238
4.11721
3.9448
3.77018
3.60426
3.46376
3.34946
3.24784
3.1471
3.04089
2.92735
2.80887
2.69198
2.58605
2.49594
2.41936
2.35048
2.2837
2.21663
2.14888
2.08319
2.02326
1.96858
1.91152
1.84593
1.77338
1.69703
1.62286
1.56441
1.52442
1.49641
1.47344
1.44633
1.40929
1.3677
1.32777
1.29606
1.27106
1.25926
1.25042
1.23636
1.21584
1.21044
1.22434
1.26725
1.39461
1.6226
1.94025
2.20706
2.49021
2.57252
2.64069
2.67559
2.68204
2.66927
2.64036
2.58422
2.52578
2.4897
2.45203
2.39512
2.33759
2.30093
2.26161
2.20745
2.15735
2.11616
2.086
2.05108
6.24116
5.97319
5.6628
5.38466
5.13021
4.88132
4.62625
4.38946
4.17912
3.97057
3.75173
3.55735
3.39549
3.23009
3.05286
2.89015
2.76519
2.9582
4.08247
5.60089
6.05121
5.83284
5.4461
5.13999
4.93692
4.76272
4.59691
4.43079
4.25657
4.07472
3.88421
3.70122
3.55222
3.435
3.33203
3.2319
3.12923
3.0208
2.90362
2.77755
2.65175
2.54312
2.45886
2.39051
2.32796
2.26608
2.20083
2.12923
2.05317
1.98305
1.9286
1.88463
1.83693
1.77911
1.7131
1.63914
1.56815
1.51697
1.48328
1.45666
1.4306
1.39823
1.35601
1.30477
1.26464
1.24141
1.21799
1.19559
1.18493
1.1734
1.15165
1.13311
1.13177
1.15359
1.24274
1.38508
1.62344
1.91676
2.20706
2.43819
2.492
2.53821
2.52586
2.52443
2.51951
2.50241
2.45504
2.38948
2.33101
2.26375
2.1985
2.17329
2.15172
2.11919
2.09106
2.04769
6.0091
6.05405
5.7709
5.47304
5.22407
4.97632
4.7202
4.5003
4.29169
4.07567
3.85293
3.67596
3.51383
3.33176
3.15372
3.0253
3.34038
4.68125
6.16006
6.67577
6.42067
6.0065
5.59418
5.29808
5.09309
4.91094
4.73625
4.56485
4.38962
4.20305
4.00099
3.80381
3.64146
3.51178
3.39912
3.29378
3.19147
3.09023
2.98602
2.87229
2.74656
2.61966
2.51174
2.42971
2.3636
2.30355
2.2432
2.17755
2.10422
2.0259
1.95047
1.88789
1.8421
1.80401
1.7594
1.70609
1.64856
1.58669
1.52348
1.46258
1.41164
1.38525
1.3666
1.34212
1.30854
1.26717
1.2224
1.18263
1.15681
1.14247
1.12732
1.11461
1.10561
1.09141
1.07192
1.06184
1.08633
1.1811
1.37091
1.6775
2.01301
2.30767
2.34078
2.36631
2.3936
2.39894
2.39943
2.3876
2.35056
2.27119
2.19388
2.13532
2.10599
2.10531
2.09782
2.0545
4.71349
5.94832
5.86709
5.58357
5.31584
5.06638
4.82214
4.60942
4.39701
4.17578
3.95818
3.79754
3.60683
3.43291
3.32728
3.76568
5.52313
6.79583
6.89348
6.75423
6.43673
6.1361
5.81449
5.49677
5.25713
5.0495
4.85837
4.68168
4.50397
4.31579
4.11452
3.91279
3.73407
3.58656
3.4616
3.3493
3.24383
3.14305
3.04413
2.94038
2.82466
2.69914
2.57984
2.48109
2.40134
2.3322
2.26733
2.20374
2.13935
2.07094
1.9958
1.91721
1.84503
1.789
1.75485
1.72858
1.69379
1.64127
1.57175
1.4968
1.44209
1.40408
1.37251
1.35001
1.33159
1.30852
1.26843
1.2091
1.15721
1.12525
1.1107
1.10203
1.0914
1.07613
1.05508
1.03643
1.00694
0.980429
0.989811
1.06065
1.22661
1.50871
1.79413
2.06976
2.19308
2.22552
2.25819
2.26796
2.2678
2.25847
2.22087
2.15654
2.10523
2.07285
2.06114
2.05044
2.28852
5.04508
5.82157
5.69385
5.43016
5.15398
4.92228
4.70944
4.50353
4.27552
4.08246
3.88526
3.7065
3.6548
4.3216
6.25714
7.69449
7.75529
7.32382
6.84028
6.54708
6.30754
6.03372
5.70932
5.41816
5.18479
4.97806
4.78613
4.60025
4.41242
4.2179
4.01863
3.82978
3.66802
3.53227
3.41302
3.30259
3.19666
3.09231
2.98569
2.87275
2.75373
2.63713
2.53377
2.4464
2.3713
2.3034
2.23831
2.17261
2.10427
2.03157
1.95422
1.87891
1.81631
1.76727
1.72938
1.69953
1.6664
1.61199
1.53311
1.46589
1.43
1.40479
1.38063
1.35551
1.32945
1.29777
1.2512
1.1939
1.14256
1.11004
1.09132
1.07818
1.06681
1.05664
1.03945
1.00725
0.966482
0.937113
0.929616
0.937181
0.981606
1.10043
1.30039
1.54355
1.81148
2.02697
2.06195
2.09655
2.12945
2.15772
2.16495
2.14106
2.08807
2.0419
1.98999
1.12969
2.76413
5.21197
5.69784
5.55012
5.26332
5.01945
4.81535
4.60004
4.38322
4.18141
3.97545
4.01936
4.93767
7.23528
8.37309
8.12762
7.84462
7.47107
7.10101
6.78734
6.49421
6.19319
5.88028
5.57895
5.31549
5.08708
4.88158
4.68951
4.50213
4.31112
4.1124
3.91509
3.7388
3.59093
3.4648
3.35167
3.24523
3.14037
3.03229
2.91825
2.80099
2.68784
2.58422
2.49034
2.40485
2.32704
2.25629
2.19063
2.12645
2.0609
1.99356
1.92687
1.86384
1.80429
1.7487
1.69873
1.65412
1.6128
1.56572
1.51297
1.46893
1.43412
1.40162
1.36918
1.33621
1.30435
1.27239
1.22685
1.17118
1.13081
1.10875
1.09082
1.07042
1.04878
1.02729
1.00129
0.962818
0.926181
0.909022
0.904398
0.903189
0.899657
0.916188
0.976097
1.09563
1.31973
1.5886
1.81991
1.89603
1.97128
2.04558
2.07924
2.08105
2.05592
1.97895
1.00282
1.2451
3.18132
5.26086
5.58089
5.40803
5.13679
4.91153
4.69876
4.49278
4.24874
4.38334
5.80155
8.06555
9.34925
9.11867
8.39168
7.88661
7.57737
7.2931
6.97474
6.63711
6.30655
5.99381
5.7008
5.43467
5.19697
4.98131
4.78037
4.58713
4.39434
4.1973
4.00034
3.81794
3.65945
3.52218
3.39875
3.2832
3.17213
3.06258
2.95171
2.84003
2.73182
2.63117
2.53682
2.44674
2.36176
2.28278
2.2085
2.1376
2.07022
2.00754
1.94832
1.89047
1.83271
1.77417
1.71694
1.66356
1.61226
1.56646
1.52701
1.49039
1.45413
1.41805
1.38548
1.35662
1.32375
1.27714
1.21895
1.1752
1.15223
1.13354
1.1129
1.09002
1.06597
1.03997
1.00529
0.963524
0.92754
0.903907
0.894214
0.885759
0.875426
0.867876
0.856711
0.851482
0.879881
0.974764
1.15121
1.3867
1.62732
1.75676
1.85339
1.95569
1.98779
1.96332
1.00002
1.00753
1.38987
3.50955
5.23814
5.45227
5.28318
5.03766
4.79477
4.55924
4.78511
6.71269
9.29478
9.80172
9.6011
9.19711
8.69787
8.19569
7.80464
7.44939
7.10563
6.76251
6.42936
6.11284
5.8162
5.54491
5.29861
5.07155
4.85838
4.65473
4.45581
4.25791
4.06357
3.8826
3.72128
3.57715
3.44458
3.31906
3.19882
3.08522
2.97869
2.87457
2.7698
2.66798
2.56927
2.47132
2.37943
2.29756
2.22473
2.15893
2.09662
2.03214
1.96549
1.90438
1.85132
1.79991
1.74372
1.68629
1.63341
1.58507
1.53653
1.4872
1.4469
1.42032
1.39742
1.37004
1.33082
1.28265
1.23813
1.19939
1.16444
1.13287
1.10877
1.09404
1.08087
1.05961
1.02212
0.980213
0.946193
0.921381
0.901944
0.887841
0.873322
0.857698
0.842874
0.83429
0.826242
0.822774
0.830276
0.881898
0.999464
1.18985
1.40652
1.57752
1.71821
1.83301
1
1.00006
1.01615
1.54841
3.75014
5.18317
5.33225
5.18366
4.8789
5.28673
7.64405
10.3508
10.9668
10.3961
9.70387
9.24515
8.86153
8.42926
7.99302
7.59029
7.22112
6.86993
6.53026
6.20683
5.90741
5.63514
5.38442
5.14805
4.92154
4.70293
4.49316
4.29482
4.10901
3.93685
3.77946
3.63421
3.49657
3.36327
3.23213
3.10554
2.99188
2.89318
2.79895
2.70212
2.60653
2.51163
2.41541
2.32419
2.24366
2.16928
2.09851
2.0349
1.98017
1.92778
1.87564
1.82886
1.7875
1.73947
1.67923
1.61519
1.55652
1.50845
1.47472
1.4437
1.40342
1.36825
1.34639
1.32036
1.28007
1.22817
1.18033
1.1506
1.13159
1.11054
1.08255
1.05873
1.04311
1.02303
0.983023
0.927543
0.896823
0.886578
0.879596
0.871473
0.860811
0.848348
0.835288
0.81294
0.793612
0.780641
0.778534
0.798636
0.860062
1.00203
1.17789
1.46525
1
1
1.00016
1.02978
1.6968
3.92647
5.11865
5.1509
5.85749
8.82959
11.165
11.5464
11.2519
10.7074
10.023
9.46571
9.00406
8.57475
8.14164
7.72161
7.32923
6.96534
6.61905
6.2906
5.98633
5.71184
5.4595
5.21926
4.98574
4.7575
4.53644
4.32779
4.13916
3.97298
3.82219
3.67751
3.53543
3.3979
3.26488
3.13773
3.02125
2.91613
2.81577
2.71187
2.60489
2.51139
2.44423
2.38547
2.30826
2.21599
2.12649
2.05075
1.98511
1.93056
1.88407
1.83804
1.78511
1.72199
1.65262
1.58465
1.52974
1.49567
1.47113
1.44523
1.41552
1.38581
1.34759
1.30035
1.25115
1.20495
1.16802
1.14337
1.12528
1.10831
1.09059
1.07284
1.04889
1.01485
0.970273
0.928158
0.906542
0.891595
0.876116
0.862278
0.850296
0.837668
0.823548
0.804535
0.784474
0.760745
0.740281
0.724373
0.719433
0.72867
0.761461
0.943163
1
1
1
1.00036
1.04647
1.86788
3.75584
5.43905
9.94118
12.4145
12.5704
11.8977
11.4113
10.9194
10.243
9.60717
9.15947
8.71178
8.27347
7.8423
7.42376
7.03021
6.67303
6.35388
6.06444
5.79916
5.54998
5.30683
5.06406
4.82177
4.58897
4.38028
4.20101
4.03898
3.88162
3.72531
3.57033
3.4179
3.27553
3.14778
3.03121
2.92278
2.82475
2.73213
2.63484
2.54202
2.46478
2.38322
2.29054
2.20088
2.12331
2.05325
1.99254
1.94242
1.89678
1.84826
1.79239
1.72766
1.65497
1.58851
1.54361
1.51155
1.48146
1.45152
1.42278
1.39082
1.34983
1.30003
1.24638
1.20238
1.17559
1.15609
1.13708
1.1171
1.09695
1.07572
1.04947
1.01588
0.976049
0.939914
0.913595
0.894395
0.878881
0.865914
0.853442
0.840401
0.825641
0.807085
0.784454
0.75862
0.732982
0.716625
0.709823
0.706397
0.702572
0.712516
1
1
1
1
1.00082
1.06206
1.96737
8.23061
13.7885
13.3948
12.5954
11.8896
11.3822
10.9226
10.3278
9.75496
9.24711
8.75978
8.31541
7.89307
7.48232
7.08567
6.7169
6.38413
6.0866
5.81339
5.55522
5.30646
5.06468
4.82928
4.6037
4.39402
4.20207
4.0266
3.86637
3.71637
3.57094
3.42704
3.28804
3.15994
3.04533
2.94011
2.83458
2.73318
2.66397
2.60655
2.52366
2.41295
2.29785
2.22095
2.15951
2.09976
2.04607
1.99743
1.95035
1.90138
1.84727
1.78351
1.70959
1.64031
1.58963
1.55198
1.52054
1.4925
1.46373
1.42903
1.38387
1.32759
1.27457
1.23997
1.21596
1.1931
1.16914
1.14477
1.12113
1.09806
1.07384
1.04582
1.01015
0.967164
0.934844
0.918062
0.905207
0.892391
0.879259
0.865904
0.85108
0.831802
0.804504
0.771222
0.741548
0.726353
0.717644
0.710479
0.703735
0.686815
1
1
1
1
1
1.00086
1.82
10.3674
14.2572
13.8539
13.1246
12.4052
11.694
11.1334
10.496
9.87876
9.29663
8.78966
8.33848
7.92033
7.5173
7.12833
6.75903
6.41892
6.11343
5.83097
5.56361
5.30813
5.0633
4.83084
4.61262
4.4067
4.21155
4.02972
3.86276
3.70822
3.5639
3.42891
3.29929
3.17177
3.04575
2.92917
2.83239
2.75374
2.67378
2.57576
2.4728
2.37492
2.28551
2.19645
2.11427
2.04781
1.99376
1.94646
1.90138
1.85482
1.80276
1.7408
1.66854
1.59869
1.54642
1.50938
1.47938
1.45205
1.42353
1.38892
1.34261
1.28685
1.24028
1.21085
1.18772
1.1646
1.14033
1.11626
1.09267
1.06868
1.04418
1.01698
0.981708
0.938141
0.908806
0.895165
0.883333
0.870988
0.857522
0.843308
0.82824
0.80912
0.781773
0.747942
0.718643
0.705239
0.696683
0.689964
0.682774
0.664897
)
;

boundaryField
{
    inlet
    {
        type            fixedValue;
        value           uniform 1;
    }
    outlet
    {
        type            zeroGradient;
    }
    bottom
    {
        type            symmetryPlane;
    }
    top
    {
        type            symmetryPlane;
    }
    obstacle
    {
        type            zeroGradient;
    }
    defaultFaces
    {
        type            empty;
    }
}


// ************************************************************************* //
