/*--------------------------------*- C++ -*----------------------------------*\
  =========                 |
  \\      /  F ield         | OpenFOAM: The Open Source CFD Toolbox
   \\    /   O peration     | Website:  https://openfoam.org
    \\  /    A nd           | Version:  7
     \\/     M anipulation  |
\*---------------------------------------------------------------------------*/
FoamFile
{
    version     2.0;
    format      ascii;
    class       volScalarField;
    location    "2.2";
    object      rho;
}
// * * * * * * * * * * * * * * * * * * * * * * * * * * * * * * * * * * * * * //

dimensions      [1 -3 0 0 0 0 0];

internalField   nonuniform List<scalar> 
4032
(
1.40001
1.40001
1.40001
1.40001
1.40001
1.40001
1.40001
1.40001
1.40001
1.40001
1.40001
1.40001
3.64029
5.44857
5.50383
5.55518
5.61294
5.66963
5.72857
5.78615
5.8355
5.86767
5.8851
5.89974
1.40001
1.40001
1.40001
1.40001
1.40001
1.40001
1.40001
1.40001
1.40001
1.40001
1.40001
1.40001
3.56582
5.42036
5.49361
5.54573
5.6033
5.65855
5.71555
5.77059
5.81721
5.84685
5.86217
5.87599
1.40001
1.40001
1.40001
1.40001
1.40001
1.40001
1.40001
1.40001
1.40001
1.40001
1.40001
1.40001
3.41592
5.38597
5.47599
5.52807
5.58568
5.63992
5.69542
5.74812
5.79153
5.81762
5.82898
5.84149
1.40001
1.40001
1.40001
1.40001
1.40001
1.40001
1.40001
1.40001
1.40001
1.40001
1.40001
1.40001
3.1977
5.3324
5.45451
5.50467
5.56102
5.61298
5.66604
5.71609
5.75622
5.77755
5.78167
5.78739
1.40001
1.40001
1.40001
1.40001
1.40001
1.40001
1.40001
1.40001
1.40001
1.40001
1.40001
1.40001
2.91022
5.24342
5.43225
5.47605
5.52669
5.57236
5.61859
5.66103
5.69336
5.71044
5.71129
5.72374
1.40001
1.40001
1.40001
1.40001
1.40001
1.40001
1.40001
1.40001
1.40001
1.40001
1.40001
1.40001
2.57143
5.11254
5.43258
5.46091
5.49844
5.53149
5.56547
5.59766
5.62192
5.63359
5.62606
5.60907
1.40001
1.40001
1.40001
1.40001
1.40001
1.40001
1.40001
1.40001
1.40001
1.40001
1.40001
1.40001
2.17146
4.91472
5.45747
5.45748
5.47727
5.49387
5.50981
5.52251
5.52294
5.49721
5.45876
5.43718
1.40001
1.40001
1.40001
1.40001
1.40001
1.40001
1.40001
1.40001
1.40001
1.40001
1.40001
1.40001
1.75658
4.65499
5.48661
5.44243
5.4548
5.4546
5.44711
5.43697
5.40993
5.36164
5.28231
5.2364
1.40001
1.40001
1.40001
1.40001
1.40001
1.40001
1.40001
1.40001
1.40001
1.40001
1.40001
1.40001
1.43802
4.1638
5.43118
5.3954
5.40804
5.39391
5.36562
5.33255
5.2682
5.1526
4.82918
3.96867
1.40001
1.40001
1.40001
1.40001
1.40001
1.40001
1.40001
1.40001
1.40001
1.40001
1.40001
1.40001
1.40017
3.46088
5.20026
5.29775
5.32744
5.31207
5.27238
5.21528
5.10936
4.91553
4.57515
3.68244
1.40001
1.40001
1.40001
1.40001
1.40001
1.40001
1.40001
1.40001
1.40001
1.40001
1.40001
1.40001
1.4
2.72026
4.99634
5.26501
5.27143
5.24613
5.19288
5.10458
4.96586
4.72544
4.36874
3.55675
1.40001
1.40001
1.40001
1.40001
1.40001
1.40001
1.40001
1.40001
1.40001
1.40001
1.40001
1.40001
1.4
1.9802
4.74472
5.26994
5.22595
5.17579
5.10507
4.99324
4.83054
4.58714
4.19686
3.53937
1.40001
1.40001
1.40001
1.40001
1.40001
1.40001
1.40001
1.40001
1.40001
1.40001
1.40001
1.40001
1.4
1.47687
4.05455
5.17934
5.14884
5.0964
5.01556
4.89231
4.71778
4.47677
4.08903
3.5758
1.40001
1.40001
1.40001
1.40001
1.40001
1.40001
1.40001
1.40001
1.40001
1.40001
1.40001
1.40001
1.40001
1.40045
3.07335
5.02223
5.09903
5.05344
4.95423
4.81704
4.63305
4.38834
4.02875
3.61723
1.40001
1.40001
1.40001
1.40001
1.40001
1.40001
1.40001
1.40001
1.40001
1.40001
1.40001
1.40001
1.40001
1.4
2.01102
4.8019
5.12649
5.01043
4.89237
4.74631
4.56469
4.32021
4.00624
3.6639
1.40001
1.40001
1.40001
1.40001
1.40001
1.40001
1.40001
1.40001
1.40001
1.40001
1.40001
1.40001
1.40001
1.4
1.46275
3.97993
5.01914
4.90208
4.81725
4.68447
4.51028
4.28166
4.00555
3.70391
1.40001
1.40001
1.40001
1.40001
1.40001
1.40001
1.40001
1.40001
1.40001
1.40001
1.40001
1.40001
1.40001
1.4
1.40024
2.73673
4.80336
4.85808
4.79883
4.67681
4.49929
4.27557
4.01804
3.74877
1.40001
1.40001
1.40001
1.40001
1.40001
1.40001
1.40001
1.40001
1.40001
1.40001
1.40001
1.40001
1.40001
1.40001
1.4
1.67178
4.25224
4.91109
4.80156
4.65872
4.48221
4.27231
4.0359
3.7909
1.40001
1.40001
1.40001
1.40001
1.40001
1.40001
1.40001
1.40001
1.40001
1.40001
1.40001
1.40001
1.40001
1.40001
1.4
1.40925
3.07081
4.75081
4.7482
4.62094
4.46202
4.26973
4.05548
3.83042
1.40001
1.40001
1.40001
1.40001
1.40001
1.40001
1.40001
1.40001
1.40001
1.40001
1.40001
1.40001
1.40001
1.40001
1.40001
1.4
1.80991
4.28996
4.79812
4.63228
4.46594
4.27688
4.07742
3.86855
1.40001
1.40001
1.40001
1.40001
1.40001
1.40001
1.40001
1.40001
1.40001
1.40001
1.40001
1.40001
1.40001
1.40001
1.40001
1.4
1.42191
3.10244
4.66546
4.61463
4.45696
4.28011
4.09421
3.90428
1.40001
1.40001
1.40001
1.40001
1.40001
1.40001
1.40001
1.40001
1.40001
1.40001
1.40001
1.40001
1.40001
1.40001
1.40001
1.4
1.40009
1.81956
4.10719
4.66159
4.48867
4.32129
4.14067
3.95717
1.40001
1.40001
1.40001
1.40001
1.40001
1.40001
1.40001
1.40001
1.40001
1.40001
1.40001
1.40001
1.40001
1.40001
1.40001
1.40001
1.40001
1.42225
2.76149
4.52189
4.50977
4.35286
4.18118
4.00069
1.40001
1.40001
1.40001
1.40001
1.40001
1.40001
1.40001
1.40001
1.40001
1.40001
1.40001
1.40001
1.40001
1.40001
1.40001
1.40001
1.40001
1.40016
1.66481
3.75603
4.5949
4.41758
4.24294
4.06002
1.40001
1.40001
1.40001
1.40001
1.40001
1.40001
1.40001
1.40001
1.40001
1.40001
1.40001
1.40001
1.40001
1.40001
1.40001
1.40001
1.40001
1.40001
1.40888
2.29618
4.23736
4.46083
4.28529
4.10985
1.40001
1.40001
1.40001
1.40001
1.40001
1.40001
1.40001
1.40001
1.40001
1.40001
1.40001
1.40001
1.40001
1.40001
1.40001
1.40001
1.40001
1.40001
1.40006
1.5044
3.11206
4.39335
4.34547
4.18452
1.40001
1.40001
1.40001
1.40001
1.40001
1.40001
1.40001
1.40001
1.40001
1.40001
1.40001
1.40001
1.40001
1.40001
1.40001
1.40001
1.40001
1.40001
1.40001
1.40192
1.82623
3.73128
4.38658
4.26541
1.40001
1.40001
1.40001
1.40001
1.40001
1.40001
1.40001
1.40001
1.40001
1.40001
1.40001
1.40001
1.40001
1.40001
1.40001
1.40001
1.40001
1.40001
1.40001
1.40001
1.42355
2.32584
4.05988
4.30726
1.40001
1.40001
1.40001
1.40001
1.40001
1.40001
1.40001
1.40001
1.40001
1.40001
1.40001
1.40001
1.40001
1.40001
1.40001
1.40001
1.40001
1.40001
1.40001
1.40001
1.40026
1.51222
2.87776
4.16
1.40001
1.40001
1.40001
1.40001
1.40001
1.40001
1.40001
1.40001
1.40001
1.40001
1.40001
1.40001
1.40001
1.40001
1.40001
1.40001
1.40001
1.40001
1.40001
1.40001
1.40001
1.40252
1.70527
3.33267
1.40001
1.40001
1.40001
1.40001
1.40001
1.40001
1.40001
1.40001
1.40001
1.40001
1.40001
1.40001
1.40001
1.40001
1.40001
1.40001
1.40001
1.40001
1.40001
1.40001
1.40001
1.40002
1.41345
1.99186
1.40001
1.40001
1.40001
1.40001
1.40001
1.40001
1.40001
1.40001
1.40001
1.40001
1.40001
1.40001
1.40001
1.40001
1.40001
1.40001
1.40001
1.40001
1.40001
1.40001
1.40001
1.40001
1.40013
1.44667
1.40001
1.40001
1.40001
1.40001
1.40001
1.40001
1.40001
1.40001
1.40001
1.40001
1.40001
1.40001
1.40001
1.40001
1.40001
1.40001
1.40001
1.40001
1.40001
1.40001
1.40001
1.40001
1.40001
1.40076
1.40001
1.40001
1.40001
1.40001
1.40001
1.40001
1.40001
1.40001
1.40001
1.40001
1.40001
1.40001
1.40001
1.40001
1.40001
1.40001
1.40001
1.40001
1.40001
1.40001
1.40001
1.40001
1.40001
1.40001
1.40001
1.40001
1.40001
1.40001
1.40001
1.40001
1.40001
1.40001
1.40001
1.40001
1.40001
1.40001
1.40001
1.40001
1.40001
1.40001
1.40001
1.40001
1.40001
1.40001
1.40001
1.40001
1.40001
1.40001
1.40001
1.40001
1.40001
1.40001
1.40001
1.40001
1.40001
1.40001
1.40001
1.40001
1.40001
1.40001
1.40001
1.40001
1.40001
1.40001
1.40001
1.40001
1.40001
1.40001
1.40001
1.40001
1.40001
1.40001
1.40001
1.40001
1.40001
1.40001
1.40001
1.40001
1.40001
1.40001
1.40001
1.40001
1.40001
1.40001
1.40001
1.40001
1.40001
1.40001
1.40001
1.40001
1.40001
1.40001
1.40001
1.40001
1.40001
1.40001
1.40001
1.40001
1.40001
1.40001
1.40001
1.40001
1.40001
1.40001
1.40001
1.40001
1.40001
1.40001
1.40001
1.40001
1.40001
1.40001
1.40001
1.40001
1.40001
1.40001
1.40001
1.40001
1.40001
1.40001
1.40001
1.40001
1.40001
1.40001
1.40001
1.40001
1.40001
1.40001
1.40001
1.40001
1.40001
1.40001
1.40001
1.40001
1.40001
1.40001
1.40001
1.40001
1.40001
1.40001
1.40001
1.40001
1.40001
1.40001
1.40001
1.40001
1.40001
1.40001
1.40001
1.40001
1.40001
1.40001
1.40001
1.40001
1.40001
1.40001
1.40001
1.40001
1.40001
1.40001
1.40001
1.40001
1.40001
1.40001
1.40001
1.40001
1.40001
1.40001
1.30159
0.48918
0.276162
0.246105
0.255322
0.278959
0.35922
0.468607
0.602197
0.754837
0.857711
0.865286
0.853979
0.863449
0.897662
0.957723
1.02373
1.04777
1.04743
1.02309
1.00239
1.0072
1.02766
1.05687
1.06546
1.06305
1.05139
1.04597
1.04813
1.05858
1.06998
1.07321
1.07311
1.06933
1.06775
1.06838
1.07223
1.08088
1.15562
1.50485
2.34841
3.35276
3.54138
3.43239
3.29369
3.24652
3.19273
3.11957
3.06281
3.01537
2.9659
2.91913
2.87504
2.83423
2.79648
2.75627
2.71373
2.66521
2.60352
2.54838
2.5145
2.48691
2.46874
2.45729
2.43475
2.40619
2.36789
2.30606
2.24141
2.2091
2.18818
2.17256
2.16812
2.16467
2.14674
2.1241
2.08763
2.02441
1.9763
1.95606
1.94046
1.93002
1.92452
1.91089
1.89349
1.87104
1.82778
1.76837
1.73726
1.72321
1.71108
1.70123
1.69556
1.68484
1.67271
1.63316
1.99071
1.18753
0.843684
0.725379
0.646008
0.578
0.535592
0.537107
0.55927
0.62045
0.689651
0.74026
0.786897
0.820094
0.860219
0.915702
0.968958
1.01204
1.03767
1.0395
1.03548
1.04009
1.04817
1.06187
1.07333
1.07791
1.0785
1.07594
1.07523
1.07616
1.078
1.08275
1.08741
1.08719
1.08406
1.08175
1.09045
1.15419
1.43605
1.82564
2.1145
2.71993
3.19097
3.31977
3.28933
3.26806
3.20164
3.12466
3.0731
3.02811
2.98107
2.93626
2.89182
2.85054
2.81401
2.77647
2.73597
2.69261
2.637
2.57184
2.52726
2.49782
2.47517
2.46131
2.44439
2.41774
2.38359
2.33618
2.27352
2.22482
2.20131
2.18401
2.17402
2.16306
2.14428
2.12119
2.08982
2.04457
1.99576
1.96683
1.95015
1.93666
1.92473
1.91052
1.89396
1.87244
1.83866
1.7916
1.7508
1.73011
1.71732
1.70584
1.69438
1.68093
1.66859
1.63351
2.51469
1.83279
1.35747
1.11483
0.998031
0.885479
0.752126
0.657998
0.635298
0.652438
0.691913
0.742813
0.80746
0.847292
0.861671
0.897041
0.943575
0.992734
1.0499
1.08654
1.10464
1.12345
1.12466
1.11708
1.11408
1.11761
1.12625
1.13362
1.13334
1.12694
1.11505
1.11018
1.11115
1.11442
1.12274
1.13968
1.23397
1.50552
1.88167
2.12475
2.1342
2.23533
2.66425
3.17001
3.35557
3.38766
3.29952
3.24551
3.17847
3.11076
3.05412
2.99729
2.94353
2.89905
2.85954
2.82087
2.78232
2.74344
2.69873
2.63959
2.57769
2.53789
2.50908
2.48279
2.45825
2.43199
2.40328
2.37221
2.33126
2.27539
2.23523
2.21416
2.19586
2.17592
2.15257
2.12408
2.09302
2.06494
2.03525
2.00115
1.97401
1.95572
1.93834
1.9197
1.89713
1.87049
1.84435
1.81832
1.7881
1.75583
1.73277
1.71651
1.70092
1.68422
1.66724
1.62935
2.81599
2.28279
1.86018
1.49414
1.29513
1.19251
1.08349
0.949651
0.827148
0.809726
0.806717
0.796401
0.795941
0.800334
0.804971
0.819864
0.862034
0.914184
0.981101
1.04467
1.08023
1.11487
1.14049
1.14208
1.14677
1.15944
1.17671
1.19052
1.18898
1.17744
1.1575
1.14562
1.14192
1.14631
1.17314
1.27819
1.63257
1.96941
2.14713
2.21379
2.19025
2.18603
2.23713
2.55615
2.99863
3.24577
3.3048
3.33062
3.26946
3.19423
3.12311
3.05016
2.99507
2.95265
2.91727
2.88492
2.85036
2.81279
2.77079
2.71979
2.65653
2.59693
2.55983
2.53193
2.50498
2.47754
2.45016
2.42231
2.38962
2.34264
2.28294
2.24432
2.2218
2.1994
2.17383
2.14566
2.12245
2.10259
2.08073
2.05206
2.01488
1.98219
1.95908
1.93599
1.90776
1.8797
1.86018
1.8442
1.826
1.79963
1.76527
1.7366
1.71621
1.69635
1.67456
1.63463
3.04037
2.57933
2.21499
1.89614
1.60549
1.41383
1.32359
1.22342
1.09731
0.956566
0.911165
0.893738
0.868925
0.853483
0.842103
0.827678
0.818236
0.826089
0.855492
0.917607
0.990166
1.05406
1.10263
1.12329
1.13348
1.14828
1.17162
1.18914
1.19188
1.19189
1.1859
1.18108
1.18022
1.20074
1.30262
1.6837
2.08622
2.20109
2.22205
2.2363
2.22294
2.19665
2.15548
2.16567
2.34127
2.7308
3.0918
3.24157
3.29203
3.26311
3.18312
3.11095
3.04747
2.99335
2.95173
2.9209
2.8944
2.86287
2.82653
2.78447
2.73071
2.663
2.60461
2.57128
2.54553
2.52376
2.50262
2.47753
2.44868
2.40868
2.34519
2.27667
2.23695
2.21165
2.19123
2.17583
2.1655
2.15105
2.13145
2.10777
2.07005
2.01756
1.9749
1.94505
1.9208
1.90359
1.88947
1.87541
1.85963
1.83954
1.80768
1.7661
1.73422
1.71058
1.68605
1.64872
3.18906
2.79768
2.45779
2.17752
1.9134
1.67046
1.5107
1.42357
1.33576
1.21036
1.0734
1.01525
1.00015
0.984337
0.951402
0.907546
0.871884
0.850467
0.846285
0.852103
0.875456
0.918902
0.971625
1.02892
1.07314
1.10593
1.13947
1.16747
1.18224
1.1869
1.18084
1.18249
1.20685
1.36183
1.68779
2.15616
2.24855
2.25653
2.24497
2.23497
2.21095
2.18281
2.145
2.10999
2.10016
2.18175
2.48454
2.84633
3.14493
3.20332
3.1919
3.15784
3.08652
3.02818
2.97539
2.93747
2.91109
2.88495
2.85573
2.82329
2.78179
2.72373
2.65139
2.5987
2.57051
2.54817
2.53002
2.50743
2.47988
2.44484
2.39121
2.31606
2.26016
2.23402
2.2158
2.2019
2.19651
2.18728
2.16898
2.1488
2.11451
2.04852
1.98493
1.9546
1.93802
1.92429
1.91431
1.90421
1.88953
1.87251
1.84708
1.80197
1.74972
1.71312
1.6927
1.66906
3.30813
2.96847
2.65245
2.38085
2.15396
1.93678
1.71907
1.57447
1.4999
1.41548
1.30916
1.18619
1.10146
1.07114
1.0408
0.999756
0.960139
0.929217
0.887803
0.871119
0.87489
0.881727
0.895767
0.918761
0.954904
0.998803
1.04084
1.08049
1.11364
1.14851
1.15598
1.18272
1.37048
1.79853
2.1159
2.28981
2.28388
2.26935
2.25482
2.2191
2.19585
2.17324
2.14579
2.11956
2.09173
2.06463
2.09372
2.24877
2.58257
2.88807
3.09792
3.12343
3.10025
3.05729
2.99798
2.95401
2.92004
2.89288
2.87173
2.84396
2.81191
2.76731
2.70037
2.62623
2.58212
2.55611
2.53427
2.51322
2.48693
2.45599
2.41514
2.35598
2.29495
2.26288
2.24367
2.22768
2.21725
2.21006
2.19609
2.17451
2.13631
2.06815
1.99863
1.9694
1.95426
1.94079
1.93234
1.92741
1.91428
1.89877
1.87611
1.82599
1.75577
1.71688
1.70501
1.69053
3.39323
3.09454
2.81595
2.54474
2.31602
2.13777
1.95479
1.76807
1.62016
1.5388
1.46977
1.38007
1.28624
1.19566
1.12692
1.09416
1.06893
1.04117
0.997737
0.946897
0.916738
0.90776
0.900724
0.895891
0.899549
0.908484
0.922849
0.951646
0.994372
1.04506
1.10959
1.2961
1.77827
2.11806
2.25635
2.28977
2.29034
2.27675
2.24542
2.20392
2.18402
2.174
2.15683
2.13598
2.11016
2.06815
2.0287
2.02225
2.08764
2.29602
2.64668
2.91214
3.04906
3.0547
3.01569
2.96731
2.92454
2.89453
2.87932
2.85383
2.82689
2.79316
2.74049
2.66606
2.59886
2.55996
2.53367
2.50903
2.48276
2.45604
2.42769
2.39147
2.34321
2.29748
2.2707
2.25224
2.23456
2.21584
2.19343
2.16542
2.13107
2.08487
2.03165
1.99312
1.97412
1.96088
1.95036
1.94174
1.92983
1.9121
1.88443
1.83404
1.76611
1.73039
1.72046
1.70709
3.4675
3.19447
2.94337
2.7013
2.46893
2.27378
2.1182
1.95773
1.8033
1.67832
1.57077
1.49636
1.43222
1.35634
1.27018
1.18896
1.1487
1.11819
1.08196
1.03961
1.00225
0.967844
0.936113
0.912684
0.905618
0.907992
0.908074
0.910509
0.920564
0.951897
1.14488
1.60539
1.98962
2.10659
2.1751
2.19519
2.20844
2.20644
2.1976
2.19551
2.18332
2.17494
2.16781
2.14717
2.12
2.07795
2.02851
2.00429
1.99414
2.00611
2.11124
2.3698
2.69279
2.9189
2.97462
2.95588
2.9251
2.89861
2.8853
2.866
2.83826
2.80506
2.76348
2.70529
2.635
2.57678
2.53919
2.51201
2.48455
2.45748
2.43365
2.41057
2.38142
2.34143
2.30016
2.26914
2.24452
2.22009
2.19243
2.16124
2.12829
2.09814
2.06798
2.03261
1.99683
1.97551
1.96043
1.94313
1.92299
1.90117
1.87462
1.83916
1.79763
1.75925
1.73985
1.72283
3.53154
3.28259
3.04616
2.81826
2.60759
2.41653
2.23991
2.08589
1.95469
1.82877
1.71227
1.60506
1.52493
1.45989
1.39218
1.32247
1.26261
1.20601
1.1551
1.12023
1.09451
1.05841
1.02141
0.982794
0.955161
0.940748
0.926792
0.921816
0.937222
1.08537
1.46373
1.83202
1.91962
1.96839
1.99617
2.02596
2.05562
2.08722
2.11539
2.14612
2.14914
2.1618
2.16412
2.14795
2.12309
2.08537
2.04448
2.00816
1.98312
1.97358
1.9664
2.00588
2.13964
2.39799
2.65572
2.85425
2.88913
2.88039
2.87774
2.8759
2.84696
2.81826
2.78116
2.73255
2.67053
2.60608
2.55654
2.52647
2.50023
2.47402
2.45003
2.4277
2.40369
2.37219
2.32925
2.2849
2.24996
2.22036
2.19122
2.16182
2.13649
2.11686
2.09627
2.06802
2.02696
1.9856
1.95798
1.93721
1.91601
1.89271
1.8664
1.84249
1.82302
1.79826
1.76895
1.74075
3.59271
3.36464
3.1419
2.92351
2.72787
2.54619
2.36946
2.21188
2.07776
1.95221
1.84126
1.73492
1.64116
1.55405
1.4765
1.42109
1.36895
1.31302
1.25457
1.20203
1.16596
1.12772
1.09532
1.06186
1.027
0.988971
0.960999
0.964703
1.0836
1.48118
1.777
1.90424
1.90694
1.90025
1.87877
1.85438
1.84636
1.85708
1.89622
1.96541
2.03761
2.07735
2.10085
2.10388
2.09624
2.07732
2.05099
2.02073
1.98797
1.96756
1.95208
1.95333
1.94987
1.98746
2.11998
2.36928
2.62436
2.75833
2.8351
2.83756
2.84717
2.83951
2.8057
2.76523
2.70809
2.63884
2.57963
2.54823
2.52543
2.50225
2.47761
2.45149
2.42444
2.39272
2.35153
2.30168
2.25647
2.22175
2.19318
2.17007
2.15337
2.13773
2.11946
2.09429
2.05374
1.99873
1.95676
1.93119
1.90939
1.88609
1.86568
1.85289
1.84066
1.82664
1.80829
1.76785
3.65306
3.43994
3.22559
3.0249
2.83997
2.65632
2.47992
2.33669
2.19824
2.06694
1.94303
1.84856
1.75472
1.66428
1.57732
1.51325
1.45404
1.40134
1.34683
1.29548
1.25045
1.20724
1.16587
1.13665
1.10177
1.05803
1.06242
1.18269
1.56261
1.8935
1.9843
1.96037
1.91798
1.88438
1.8587
1.83793
1.81811
1.79254
1.78114
1.79128
1.82937
1.86947
1.9056
1.94147
1.97855
2.00732
2.0025
1.99456
1.98424
1.97134
1.95867
1.93929
1.92225
1.91776
1.91923
1.96244
2.09867
2.3122
2.54695
2.67116
2.75395
2.79783
2.81065
2.79507
2.75038
2.68863
2.62054
2.57055
2.54411
2.52468
2.50151
2.47459
2.44673
2.41496
2.37354
2.31963
2.26559
2.22802
2.20283
2.18494
2.16998
2.15411
2.13582
2.11211
2.07551
2.0205
1.96569
1.92994
1.90579
1.88849
1.87692
1.86843
1.8603
1.84952
1.83709
1.79641
3.709
3.50813
3.30609
3.12011
2.93989
2.75904
2.59287
2.44723
2.30827
2.17483
2.05705
1.95493
1.85492
1.76739
1.68375
1.61591
1.54544
1.48411
1.43041
1.38046
1.33263
1.28628
1.2412
1.20025
1.16563
1.15627
1.28071
1.67669
2.05653
2.12268
2.07262
2.01144
1.96261
1.93104
1.9059
1.88244
1.85698
1.81508
1.7754
1.76104
1.75083
1.74616
1.74859
1.76054
1.77748
1.81992
1.85101
1.88032
1.90907
1.92183
1.91092
1.89753
1.8954
1.90643
1.90423
1.88724
1.87232
1.91055
2.03641
2.25771
2.45764
2.62619
2.72008
2.75391
2.75639
2.73442
2.67915
2.607
2.55917
2.53869
2.51475
2.48947
2.46493
2.43677
2.39688
2.33952
2.27757
2.23989
2.21823
2.20045
2.18467
2.16927
2.15151
2.128
2.09304
2.03998
1.97867
1.93853
1.91908
1.90624
1.89503
1.8866
1.87953
1.86757
1.85536
1.81476
3.77
3.57492
3.38391
3.20643
3.02976
2.85294
2.70104
2.55354
2.41208
2.27377
2.16827
2.06108
1.96107
1.8603
1.78281
1.71214
1.63968
1.57242
1.51185
1.463
1.40915
1.36473
1.3137
1.26632
1.26361
1.3996
1.81558
2.22003
2.28504
2.22792
2.1592
2.09841
2.05494
2.02074
1.98844
1.95852
1.92804
1.89199
1.84029
1.77584
1.74253
1.7299
1.7231
1.7247
1.7289
1.71916
1.70332
1.70323
1.70814
1.72792
1.75656
1.79349
1.82095
1.83668
1.84469
1.8421
1.83579
1.82931
1.8336
1.87432
1.98545
2.18802
2.39602
2.56725
2.68877
2.70697
2.70179
2.648
2.58329
2.55184
2.52327
2.49652
2.47222
2.44827
2.41686
2.36854
2.30945
2.26277
2.23303
2.21107
2.19433
2.18033
2.16579
2.14547
2.1134
2.06063
1.99547
1.95975
1.94603
1.93314
1.91888
1.90642
1.89476
1.88324
1.8735
1.83008
3.8148
3.62986
3.45403
3.28037
3.10431
2.94413
2.80003
2.65496
2.50635
2.38014
2.27174
2.16077
2.05738
1.95989
1.88505
1.8015
1.72783
1.65548
1.60052
1.54287
1.48552
1.43134
1.38162
1.37426
1.52751
1.97656
2.37815
2.45589
2.39731
2.32397
2.26204
2.20197
2.15033
2.10882
2.07218
2.03841
2.00546
1.96837
1.91827
1.85377
1.79824
1.76796
1.74878
1.73148
1.71567
1.7005
1.69207
1.67455
1.629
1.59771
1.59965
1.61743
1.65109
1.68425
1.72577
1.75164
1.76477
1.76251
1.7646
1.76891
1.77559
1.81495
1.92871
2.11509
2.33531
2.51852
2.63045
2.62707
2.59314
2.56855
2.54105
2.50921
2.47436
2.44713
2.42138
2.3875
2.34725
2.3076
2.268
2.22991
2.20111
2.18419
2.17136
2.1556
2.13022
2.08834
2.03249
1.9883
1.9685
1.95453
1.94056
1.92647
1.911
1.89194
1.86964
1.81706
3.87359
3.69342
3.52569
3.35748
3.18336
3.03422
2.89584
2.7519
2.60099
2.48591
2.37161
2.263
2.14798
2.06212
1.97956
1.89315
1.81559
1.73948
1.68265
1.62067
1.55846
1.50021
1.49757
1.67352
2.15953
2.56498
2.62751
2.56271
2.48673
2.42275
2.36179
2.29852
2.24529
2.20144
2.16197
2.12427
2.08681
2.04552
1.99391
1.92854
1.87218
1.83711
1.80818
1.7799
1.75364
1.72798
1.70124
1.67197
1.63436
1.58817
1.57438
1.56415
1.55256
1.55163
1.56207
1.58225
1.60697
1.63158
1.64362
1.65522
1.67082
1.67871
1.69396
1.74163
1.86251
2.04739
2.27634
2.46335
2.52113
2.54435
2.54883
2.53575
2.49551
2.45172
2.42055
2.39415
2.37081
2.3434
2.30682
2.26476
2.22849
2.19875
2.1749
2.15597
2.13508
2.10763
2.07075
2.02393
1.98761
1.96912
1.95511
1.94117
1.92481
1.90189
1.87024
1.81093
3.93231
3.75732
3.59143
3.42989
3.26863
3.1191
2.98003
2.83549
2.69918
2.58407
2.46853
2.34831
2.23592
2.15694
2.068
1.98339
1.89175
1.82482
1.76247
1.69108
1.6238
1.63317
1.85001
2.37417
2.76
2.80101
2.73126
2.64928
2.58424
2.5278
2.46436
2.39792
2.33846
2.28837
2.24394
2.20191
2.16044
2.11769
2.06889
2.00682
1.94105
1.89601
1.86566
1.83887
1.81256
1.78326
1.75161
1.71626
1.67481
1.62523
1.58002
1.55356
1.53793
1.53137
1.52036
1.50673
1.50026
1.50085
1.50543
1.51591
1.52709
1.5348
1.55563
1.57956
1.60232
1.66228
1.77521
1.97064
2.17951
2.3416
2.46701
2.50062
2.47575
2.45532
2.44135
2.41829
2.39647
2.37229
2.33597
2.2912
2.24983
2.21424
2.18556
2.16377
2.14441
2.12279
2.0931
2.05095
2.00391
1.97897
1.96514
1.95002
1.93198
1.90863
1.87144
1.80764
4.0133
3.84389
3.67867
3.51568
3.35798
3.21147
3.069
2.92113
2.79198
2.67616
2.56095
2.43577
2.3318
2.24498
2.15338
2.06455
1.97529
1.911
1.83863
1.75972
1.77998
2.05466
2.63552
2.98037
2.99421
2.92086
2.83243
2.75936
2.69771
2.63298
2.56158
2.48859
2.42336
2.36954
2.32277
2.27806
2.23318
2.18744
2.13818
2.08098
2.01837
1.96493
1.9251
1.89191
1.86078
1.83093
1.80246
1.77099
1.73204
1.68617
1.63065
1.57908
1.54953
1.52868
1.5093
1.4963
1.48841
1.47761
1.46223
1.45067
1.43512
1.42383
1.42317
1.43327
1.45224
1.47278
1.5006
1.55375
1.66296
1.85152
2.06129
2.2807
2.36363
2.40677
2.40439
2.40927
2.40826
2.40036
2.36644
2.31272
2.2658
2.22586
2.18983
2.16913
2.15582
2.13709
2.10977
2.07682
2.03734
1.99209
1.95993
1.94234
1.9292
1.91141
1.87969
1.8265
4.09131
3.9251
3.75893
3.59428
3.43988
3.29424
3.14752
2.99936
2.87895
2.76616
2.64704
2.51661
2.42303
2.33082
2.24062
2.14162
2.05888
1.98881
1.90906
1.94379
2.29164
2.90462
3.22912
3.19287
3.09497
3.00591
2.93639
2.86949
2.80137
2.72924
2.65329
2.57646
2.50731
2.45069
2.40161
2.35377
2.30382
2.2513
2.19672
2.13993
2.08268
2.03075
1.98796
1.95124
1.91635
1.88233
1.84976
1.81807
1.78561
1.75062
1.70669
1.65002
1.59353
1.5518
1.52497
1.50898
1.49446
1.47638
1.45858
1.44291
1.4248
1.39941
1.38109
1.36848
1.36236
1.36331
1.37175
1.38013
1.39046
1.43804
1.54946
1.73235
1.95235
2.16097
2.25921
2.30658
2.35745
2.36111
2.35152
2.32561
2.29931
2.25938
2.21823
2.18132
2.14626
2.12929
2.11573
2.09701
2.06323
2.01471
1.97734
1.95027
1.92187
1.88988
1.87333
1.85007
4.1711
4.0015
3.83738
3.67522
3.52113
3.37548
3.23065
3.08998
2.96459
2.85155
2.72919
2.60964
2.51366
2.4202
2.32184
2.21756
2.14268
2.06343
2.12756
2.57943
3.2366
3.50123
3.4404
3.31651
3.20001
3.11191
3.04261
2.97363
2.89848
2.81873
2.73604
2.65607
2.58832
2.53369
2.48491
2.43549
2.38183
2.32264
2.25929
2.1957
2.13719
2.08711
2.04512
2.00799
1.972
1.93517
1.8968
1.85867
1.82343
1.79088
1.75648
1.71565
1.6683
1.61743
1.56837
1.53033
1.50545
1.4894
1.47669
1.46082
1.43637
1.40618
1.37758
1.35695
1.341
1.33337
1.3274
1.31766
1.30305
1.3018
1.31324
1.34624
1.43893
1.59886
1.81139
1.98277
2.15996
2.21464
2.26107
2.28264
2.27973
2.26883
2.24624
2.2062
2.16741
2.14477
2.12125
2.08508
2.04826
2.02447
1.99878
1.96345
1.92986
1.90064
1.87786
1.85097
4.23758
4.09367
3.9202
3.75963
3.61104
3.46599
3.31848
3.18159
3.05958
2.9388
2.81232
2.6985
2.60253
2.50463
2.39945
2.30223
2.22227
2.32202
2.87796
3.57309
3.80052
3.70891
3.53895
3.40101
3.30929
3.22992
3.15411
3.07809
2.99775
2.91265
2.82154
2.7327
2.66057
2.60446
2.55511
2.50637
2.45515
2.39936
2.33708
2.26787
2.19708
2.13561
2.0885
2.05107
2.01717
1.98332
1.94642
1.90412
1.85754
1.81397
1.78012
1.75263
1.72298
1.68637
1.6426
1.59252
1.54513
1.51223
1.49186
1.47637
1.46063
1.43921
1.40959
1.37146
1.34146
1.32589
1.31089
1.29521
1.28772
1.28011
1.26499
1.25202
1.25407
1.27191
1.33893
1.44076
1.60618
1.80412
1.99558
2.14579
2.18049
2.20997
2.19625
2.18865
2.18387
2.17188
2.14099
2.09925
2.06227
2.01957
1.97852
1.96238
1.9476
1.92411
1.9023
1.86929
4.19351
4.16973
4.01327
3.84507
3.6995
3.55394
3.40425
3.27429
3.15107
3.02376
2.89287
2.78778
2.69131
2.58324
2.4769
2.39323
2.55273
3.20404
3.86436
4.11071
4.00763
3.83114
3.64794
3.51439
3.42157
3.33794
3.25745
3.17865
3.09764
3.00997
2.91277
2.81632
2.7368
2.67357
2.61849
2.56641
2.51495
2.46296
2.40799
2.34604
2.27551
2.20286
2.14091
2.09452
2.0577
2.02428
1.98995
1.95116
1.90612
1.85654
1.80779
1.76729
1.73812
1.7139
1.68563
1.65182
1.61398
1.5722
1.52943
1.48827
1.45502
1.4396
1.42805
1.41035
1.38488
1.35345
1.31993
1.29143
1.27414
1.26427
1.25301
1.24415
1.2389
1.22975
1.216
1.20867
1.22725
1.29713
1.43532
1.65128
1.87628
2.07143
2.09303
2.10936
2.12491
2.1238
2.12233
2.11374
2.08899
2.03877
1.99212
1.95565
1.93547
1.93378
1.92746
1.89441
3.64046
4.16193
4.10809
3.94435
3.78697
3.63913
3.49478
3.36758
3.24078
3.10871
2.97892
2.88131
2.76732
2.66331
2.58983
2.80738
3.63418
4.1862
4.2579
4.20059
4.06412
3.93656
3.79476
3.65056
3.54117
3.44587
3.35777
3.27626
3.19359
3.10458
3.00737
2.90807
2.81907
2.74513
2.68201
2.62472
2.57024
2.51742
2.46462
2.40797
2.34329
2.27159
2.2026
2.14546
2.09958
2.05983
2.0221
1.9842
1.94454
1.90095
1.85192
1.8
1.7519
1.71509
1.69391
1.67818
1.65708
1.62333
1.57566
1.52341
1.48626
1.46117
1.4401
1.42525
1.41265
1.39547
1.36447
1.31895
1.27983
1.25668
1.24702
1.24133
1.23377
1.2223
1.20604
1.19199
1.16916
1.14867
1.15624
1.21125
1.33533
1.5398
1.73883
1.92472
2.00621
2.02766
2.04872
2.05022
2.04783
2.04176
2.01892
1.98043
1.94962
1.92758
1.91845
1.90935
2.30566
3.81292
4.12337
4.04518
3.88964
3.72608
3.58642
3.45764
3.33261
3.19526
3.07791
2.95784
2.85226
2.80608
3.12695
4.02206
4.63609
4.67564
4.49373
4.28839
4.166
4.06606
3.94684
3.80028
3.66663
3.55916
3.4632
3.3732
3.28514
3.19513
3.10049
3.00163
2.90602
2.82267
2.75166
2.6885
2.62943
2.57222
2.51524
2.45622
2.39272
2.32473
2.25722
2.19692
2.14581
2.10169
2.06135
2.02192
1.98111
1.93744
1.88983
1.83823
1.78754
1.74581
1.71374
1.68947
1.67095
1.65017
1.61447
1.56001
1.51253
1.48773
1.47071
1.45442
1.43717
1.41884
1.39572
1.36065
1.31601
1.27588
1.25116
1.23729
1.22763
1.21927
1.21167
1.19856
1.17319
1.14049
1.11694
1.11188
1.11823
1.15405
1.24636
1.39623
1.57142
1.75704
1.90465
1.92755
1.94799
1.96469
1.98432
1.99126
1.97837
1.94734
1.91905
1.88361
1.50962
2.59956
3.90799
4.08255
3.99432
3.82735
3.68016
3.55384
3.42109
3.28838
3.16513
3.03575
3.05085
3.4847
4.51042
5.00409
4.90448
4.78522
4.62513
4.46688
4.33401
4.20928
4.07779
3.93732
3.79889
3.67579
3.5674
3.46847
3.37504
3.28321
3.18858
3.08836
2.98663
2.89374
2.81418
2.74511
2.68244
2.62318
2.56463
2.50395
2.43927
2.37196
2.30636
2.24575
2.19026
2.13907
2.09177
2.04808
2.0068
1.96554
1.92233
1.87715
1.83237
1.79023
1.75056
1.71359
1.68031
1.65092
1.62387
1.59179
1.55504
1.52424
1.49955
1.47636
1.45321
1.42946
1.40627
1.38255
1.34803
1.30484
1.27363
1.25684
1.2426
1.22602
1.20893
1.19253
1.17227
1.14083
1.11101
1.09753
1.09422
1.09358
1.09158
1.10563
1.15378
1.24601
1.41421
1.60793
1.76866
1.81667
1.86448
1.9115
1.9405
1.9443
1.93147
1.88302
1.40266
1.60049
2.85107
3.942
4.04311
3.94269
3.78454
3.64663
3.5138
3.38642
3.23176
3.28987
3.96152
4.95632
5.49207
5.40125
5.09517
4.87913
4.74704
4.62502
4.48695
4.33861
4.19068
4.04782
3.91128
3.78473
3.66935
3.56269
3.46201
3.36441
3.26628
3.16479
3.06172
2.96454
2.87838
2.80209
2.73226
2.66634
2.60288
2.54028
2.47664
2.41204
2.34905
2.29005
2.23409
2.17982
2.12771
2.07836
2.03115
1.98516
1.94048
1.89819
1.85829
1.81932
1.78026
1.7406
1.70193
1.66598
1.63102
1.5995
1.57204
1.54613
1.5203
1.49464
1.47159
1.45063
1.42616
1.39067
1.34638
1.31328
1.29552
1.2809
1.26449
1.24633
1.22763
1.20718
1.1792
1.14479
1.11481
1.09513
1.08741
1.08077
1.07294
1.0677
1.05957
1.05611
1.07944
1.15471
1.29
1.46154
1.6289
1.71856
1.78786
1.85801
1.88588
1.871
1.40002
1.40695
1.70958
3.04626
3.94337
3.9951
3.89711
3.75241
3.60655
3.45476
3.55496
4.46696
5.57401
5.79334
5.70894
5.53314
5.31775
5.09579
4.92313
4.76609
4.61241
4.45635
4.30185
4.15252
4.01042
3.87832
3.75617
3.64147
3.53212
3.42662
3.32294
3.21915
3.11626
3.01937
2.93183
2.85222
2.77746
2.70549
2.63595
2.56994
2.50777
2.44673
2.38503
2.32476
2.26587
2.20637
2.14972
2.09877
2.05261
2.00978
1.96808
1.92426
1.87896
1.83724
1.801
1.76641
1.72878
1.68958
1.65299
1.61918
1.58427
1.54807
1.51892
1.50026
1.48439
1.46514
1.43671
1.40068
1.36675
1.33674
1.30877
1.28333
1.26453
1.25335
1.24336
1.22675
1.19651
1.1618
1.13274
1.11146
1.09549
1.08444
1.07295
1.06046
1.04887
1.04285
1.03692
1.03307
1.03821
1.07755
1.16699
1.31025
1.47111
1.59491
1.69546
1.77806
1.40001
1.40006
1.41468
1.82492
3.19129
3.92888
3.94867
3.86418
3.68159
3.87205
4.98482
6.15627
6.37846
6.13938
5.84094
5.63382
5.45667
5.26055
5.06461
4.88337
4.7144
4.5497
4.38698
4.22965
4.08255
3.94762
3.82157
3.70055
3.58262
3.46751
3.35648
3.25143
3.15307
3.06166
2.97727
2.89823
2.82185
2.74605
2.66997
2.59536
2.52774
2.4688
2.41227
2.35396
2.29647
2.23937
2.18131
2.12528
2.07397
2.02485
1.97681
1.9331
1.89523
1.85903
1.82324
1.7914
1.76341
1.73057
1.6889
1.64409
1.60216
1.56714
1.54263
1.52016
1.49083
1.46608
1.45111
1.43236
1.4019
1.36155
1.32386
1.30036
1.28568
1.26918
1.24679
1.22805
1.21554
1.19893
1.16534
1.11817
1.0927
1.08481
1.07945
1.07336
1.06544
1.05598
1.04533
1.02572
1.00753
0.994508
0.989667
1.00473
1.05311
1.16428
1.30131
1.51053
1.40001
1.40001
1.40016
1.42676
1.92977
3.30811
3.89329
3.88662
4.21902
5.60037
6.59536
6.68289
6.54528
6.29901
5.9945
5.74426
5.53822
5.34855
5.1577
4.97023
4.78952
4.61653
4.44844
4.28729
4.13626
3.99818
3.86945
3.7452
3.62306
3.50287
3.38617
3.27595
3.17625
3.08892
3.00985
2.93277
2.85487
2.77729
2.70024
2.62487
2.55466
2.49067
2.4294
2.36597
2.30057
2.24421