/*--------------------------------*- C++ -*----------------------------------*\
  =========                 |
  \\      /  F ield         | OpenFOAM: The Open Source CFD Toolbox
   \\    /   O peration     | Website:  https://openfoam.org
    \\  /    A nd           | Version:  7
     \\/     M anipulation  |
\*---------------------------------------------------------------------------*/
FoamFile
{
    version     2.0;
    format      ascii;
    class       volScalarField;
    location    "2.2";
    object      T;
}
// * * * * * * * * * * * * * * * * * * * * * * * * * * * * * * * * * * * * * //

dimensions      [0 0 0 1 0 0 0];

internalField   nonuniform List<scalar> 
4032
(
1
1
1
1
1
1
1
1
1
1
1
1
2.16942
2.69752
2.72609
2.7466
2.76677
2.78369
2.79622
2.80515
2.81419
2.82602
2.83879
2.8468
1
1
1
1
1
1
1
1
1
1
1
1
2.14894
2.69367
2.7247
2.74506
2.76512
2.78165
2.79366
2.80202
2.81056
2.82196
2.83436
2.84222
1
1
1
1
1
1
1
1
1
1
1
1
2.09988
2.68737
2.72203
2.74225
2.76217
2.77832
2.78981
2.79753
2.8054
2.81627
2.82812
2.83579
1
1
1
1
1
1
1
1
1
1
1
1
2.02211
2.67346
2.71713
2.73757
2.75745
2.77323
2.78418
2.79119
2.79819
2.80827
2.81912
2.82549
1
1
1
1
1
1
1
1
1
1
1
1
1.91159
2.64771
2.70538
2.72773
2.74844
2.76418
2.77442
2.78017
2.78557
2.79441
2.80449
2.81202
1
1
1
1
1
1
1
1
1
1
1
1
1.76502
2.60504
2.6868
2.7133
2.73596
2.75216
2.76189
2.767
2.77169
2.77897
2.78436
2.78298
1
1
1
1
1
1
1
1
1
1
1
1
1.55231
2.52519
2.66115
2.69303
2.7185
2.73604
2.74598
2.75028
2.7515
2.75007
2.74815
2.74514
1
1
1
1
1
1
1
1
1
1
1
1
1.25728
2.40733
2.64221
2.66572
2.69195
2.71264
2.72411
2.72796
2.72523
2.7217
2.72179
2.73548
1
1
1
1
1
1
1
1
1
1
1
1
1.01964
2.29363
2.64419
2.64453
2.65988
2.67901
2.69253
2.69704
2.69078
2.67469
2.62928
2.53472
1
1
1
1
1
1
1
1
1
1
1
1
1.00008
2.10651
2.61767
2.6237
2.63352
2.64585
2.65607
2.65849
2.64876
2.61911
2.56503
2.4097
1
1
1
1
1
1
1
1
1
1
1
1
0.999999
1.80206
2.54813
2.6096
2.61765
2.62142
2.62441
2.62087
2.60668
2.56927
2.50569
2.32935
1
1
1
1
1
1
1
1
1
1
1
1
1
1.37186
2.40479
2.58949
2.59236
2.59499
2.59334
2.58486
2.56552
2.52729
2.45225
2.29661
1
1
1
1
1
1
1
1
1
1
1
1
1
1.03809
2.22099
2.55123
2.56163
2.56449
2.56129
2.55061
2.52874
2.49036
2.414
2.29776
1
1
1
1
1
1
1
1
1
1
1
1
1
1.00024
1.89798
2.4824
2.53992
2.53802
2.53105
2.51855
2.49585
2.45727
2.38745
2.29654
1
1
1
1
1
1
1
1
1
1
1
1
1
0.999999
1.35826
2.3387
2.51643
2.5038
2.49638
2.48424
2.46359
2.42657
2.36827
2.29543
1
1
1
1
1
1
1
1
1
1
1
1
1
1
1.03042
2.15849
2.47328
2.45666
2.45726
2.4489
2.43069
2.39847
2.35009
2.29037
1
1
1
1
1
1
1
1
1
1
1
1
1
1
1.00014
1.72193
2.37299
2.43569
2.4319
2.42105
2.40118
2.37091
2.33043
2.28193
1
1
1
1
1
1
1
1
1
1
1
1
1
1
1
1.14246
2.17743
2.41932
2.4094
2.39489
2.37348
2.3445
2.30868
2.26809
1
1
1
1
1
1
1
1
1
1
1
1
1
1
1
1.00428
1.82426
2.33209
2.38536
2.36797
2.3478
2.3206
2.28811
2.25188
1
1
1
1
1
1
1
1
1
1
1
1
1
1
1
1
1.21521
2.13834
2.36142
2.34132
2.32362
2.29914
2.26989
2.23663
1
1
1
1
1
1
1
1
1
1
1
1
1
1
1
1
1.01004
1.79926
2.28013
2.30955
2.2945
2.27438
2.24984
2.2216
1
1
1
1
1
1
1
1
1
1
1
1
1
1
1
1
1.00003
1.21535
2.07297
2.28595
2.2667
2.25336
2.23406
2.20962
1
1
1
1
1
1
1
1
1
1
1
1
1
1
1
1
1
1.00999
1.64058
2.16923
2.24659
2.22875
2.21189
2.19124
1
1
1
1
1
1
1
1
1
1
1
1
1
1
1
1
1
1.00005
1.13049
1.9389
2.22247
2.20346
2.18888
2.17071
1
1
1
1
1
1
1
1
1
1
1
1
1
1
1
1
1
1
1.00373
1.42381
2.05304
2.18218
2.1604
2.14412
1
1
1
1
1
1
1
1
1
1
1
1
1
1
1
1
1
1
1.00002
1.04804
1.73021
2.11632
2.1423
2.12679
1
1
1
1
1
1
1
1
1
1
1
1
1
1
1
1
1
1
1
1.0007
1.20731
1.89722
2.1178
2.10721
1
1
1
1
1
1
1
1
1
1
1
1
1
1
1
1
1
1
1
1
1.00993
1.42213
1.96972
2.08789
1
1
1
1
1
1
1
1
1
1
1
1
1
1
1
1
1
1
1
1
1.00008
1.05053
1.61891
1.99408
1
1
1
1
1
1
1
1
1
1
1
1
1
1
1
1
1
1
1
1
1
1.00089
1.14375
1.74699
1
1
1
1
1
1
1
1
1
1
1
1
1
1
1
1
1
1
1
1
1
1
1.00529
1.27176
1
1
1
1
1
1
1
1
1
1
1
1
1
1
1
1
1
1
1
1
1
1
1.00004
1.01956
1
1
1
1
1
1
1
1
1
1
1
1
1
1
1
1
1
1
1
1
1
1
1
1.00024
1
1
1
1
1
1
1
1
1
1
1
1
1
1
1
1
1
1
1
1
1
1
1
1
1
1
1
1
1
1
1
1
1
1
1
1
1
1
1
1
1
1
1
1
1
1
1
1
1
1
1
1
1
1
1
1
1
1
1
1
1
1
1
1
1
1
1
1
1
1
1
1
1
1
1
1
1
1
1
1
1
1
1
1
1
1
1
1
1
1
1
1
1
1
1
1
1
1
1
1
1
1
1
1
1
1
1
1
1
1
1
1
1
1
1
1
1
1
1
1
1
1
1
1
1
1
1
1
1
1
1
1
1
1
1
1
1
1
1
1
1
1
1
1
1
1
1
1
1
1
1
1
1
1
1
1
1
1
1
1
1
1
1
1
1
1
1
1
1.72015
1.17903
1.02143
1.1344
1.20613
1.25776
1.3657
1.46159
1.55544
1.64682
1.66612
1.66332
1.65999
1.689
1.73758
1.75545
1.75785
1.75062
1.7299
1.7119
1.71086
1.72016
1.72459
1.72593
1.72286
1.71373
1.70542
1.70342
1.70466
1.70883
1.71024
1.70653
1.69752
1.69151
1.69126
1.69317
1.69377
1.69714
1.74202
1.94565
2.32453
2.68131
2.7289
2.69085
2.63847
2.60828
2.58254
2.55653
2.53843
2.52184
2.50216
2.48297
2.46675
2.45412
2.44394
2.43282
2.41929
2.40156
2.37823
2.35862
2.34834
2.34031
2.33402
2.32782
2.31455
2.29811
2.28003
2.25648
2.23399
2.223
2.21511
2.20783
2.2039
2.20004
2.19027
2.17909
2.16229
2.13399
2.11069
2.09872
2.08917
2.08262
2.07908
2.07276
2.065
2.05436
2.0339
2.00568
1.98993
1.98301
1.97823
1.97606
1.97645
1.97528
1.97327
1.96447
1.96269
1.63647
1.46273
1.41839
1.35925
1.30818
1.29133
1.29629
1.30964
1.35739
1.40632
1.44522
1.49061
1.53329
1.57407
1.60995
1.62957
1.63889
1.64371
1.64988
1.66054
1.67542
1.67374
1.67118
1.67163
1.6725
1.67477
1.67577
1.67753
1.67794
1.67645
1.67371
1.67068
1.66858
1.66785
1.66689
1.67516
1.71582
1.8809
2.03519
2.12664
2.36658
2.53643
2.58522
2.57363
2.55933
2.53367
2.51314
2.50091
2.48801
2.4717
2.45548
2.44107
2.42969
2.42099
2.41191
2.40061
2.3866
2.36727
2.34511
2.33157
2.32348
2.31634
2.31002
2.30031
2.286
2.27061
2.2532
2.23202
2.21564
2.2072
2.19968
2.19393
2.18719
2.17734
2.16643
2.15267
2.13249
2.10931
2.09388
2.08408
2.07649
2.07047
2.06418
2.05694
2.04714
2.03126
2.00883
1.98967
1.98034
1.97541
1.97201
1.96952
1.96711
1.9654
1.95812
2.06378
1.85919
1.67671
1.55977
1.49726
1.4396
1.36208
1.28404
1.24561
1.25493
1.28281
1.32273
1.36827
1.39531
1.40615
1.43498
1.46721
1.49534
1.52636
1.55415
1.57951
1.60145
1.60247
1.59718
1.59561
1.59908
1.60648
1.61366
1.61616
1.61629
1.61202
1.60658
1.60584
1.60681
1.61203
1.62764
1.68852
1.83371
2.00112
2.04758
2.02848
2.06102
2.23034
2.41312
2.46684
2.488
2.46809
2.46017
2.44537
2.429
2.41411
2.39884
2.38545
2.37552
2.36713
2.35882
2.35008
2.34041
2.32799
2.31044
2.29222
2.28174
2.27408
2.26557
2.25583
2.2445
2.23347
2.22391
2.21234
2.19548
2.18243
2.1747
2.16665
2.15717
2.14649
2.13445
2.12184
2.10968
2.09553
2.07914
2.0657
2.05669
2.04895
2.04145
2.03261
2.02191
2.01079
1.99908
1.98607
1.97253
1.96336
1.95772
1.95313
1.94913
1.94533
1.93554
2.10887
1.96088
1.8287
1.68675
1.59798
1.55293
1.50019
1.42651
1.34268
1.32044
1.31483
1.30436
1.30533
1.3088
1.31236
1.31961
1.34502
1.37627
1.41567
1.45287
1.47751
1.49988
1.51566
1.52141
1.52852
1.5386
1.55054
1.56045
1.56074
1.55758
1.54967
1.54383
1.54274
1.5461
1.5638
1.62565
1.81083
1.94794
2.01353
2.01244
1.99782
1.98728
2.00626
2.13077
2.27833
2.35373
2.38097
2.40128
2.38802
2.36984
2.3526
2.33611
2.325
2.31672
2.30945
2.3023
2.29418
2.28508
2.27462
2.26129
2.24403
2.22785
2.21873
2.21157
2.20336
2.19416
2.18571
2.17895
2.17217
2.16091
2.14331
2.13057
2.12219
2.11294
2.10223
2.09071
2.08127
2.0733
2.06432
2.05202
2.03604
2.02217
2.01296
2.00455
1.99469
1.98495
1.97867
1.97389
1.9678
1.95809
1.94479
1.934
1.92727
1.9215
1.9152
1.90331
2.15724
2.02757
1.91755
1.81055
1.7015
1.6215
1.58348
1.53819
1.47466
1.39211
1.3588
1.34541
1.33248
1.32521
1.31695
1.30512
1.29874
1.30418
1.3201
1.35456
1.39481
1.42777
1.45268
1.46635
1.47462
1.48365
1.49694
1.50971
1.51425
1.51521
1.51331
1.51185
1.51304
1.52633
1.58306
1.77236
1.94717
1.98785
1.99407
1.99537
1.98895
1.97752
1.96239
1.96741
2.03684
2.17006
2.27751
2.32334
2.34511
2.33844
2.32012
2.30401
2.28972
2.27739
2.26709
2.25836
2.24996
2.23993
2.22915
2.21766
2.20352
2.18526
2.16945
2.16105
2.15421
2.14826
2.14302
2.13773
2.13256
2.12447
2.1073
2.08514
2.07122
2.06132
2.05251
2.04567
2.04119
2.03567
2.02851
2.0196
2.00517
1.98518
1.96953
1.95952
1.95235
1.94838
1.94566
1.94302
1.93952
1.93402
1.92322
1.90747
1.89573
1.88794
1.88027
1.86841
2.18921
2.08122
1.97995
1.89078
1.79983
1.70779
1.64265
1.60683
1.56885
1.50979
1.4367
1.40172
1.39349
1.38486
1.36487
1.33896
1.31832
1.30488
1.3026
1.30631
1.31851
1.34221
1.37188
1.40387
1.42751
1.44341
1.45921
1.47403
1.48367
1.48927
1.48711
1.48829
1.50212
1.5908
1.75105
1.94831
1.99202
1.99746
1.99272
1.98839
1.97894
1.96837
1.95564
1.94322
1.93624
1.96817
2.07905
2.19436
2.28252
2.29463
2.29688
2.28978
2.27183
2.25754
2.24344
2.2313
2.22051
2.20912
2.19764
2.18692
2.17535
2.16005
2.14012
2.12559
2.11843
2.11276
2.1086
2.10359
2.09786
2.09035
2.07637
2.05283
2.03337
2.02334
2.01543
2.00886
2.00563
2.00126
1.99453
1.98756
1.97562
1.95237
1.93054
1.92189
1.91827
1.91593
1.9152
1.91449
1.91203
1.90849
1.90143
1.88541
1.86516
1.85167
1.8452
1.83738
2.21135
2.12237
2.03189
1.94829
1.87393
1.79796
1.71546
1.65656
1.62595
1.59
1.54255
1.48311
1.43748
1.42105
1.40464
1.38249
1.36088
1.34223
1.31791
1.30765
1.30977
1.31385
1.32179
1.3352
1.35666
1.38204
1.40436
1.42458
1.44202
1.46155
1.46569
1.47967
1.58481
1.80433
1.93471
2.00387
2.00606
2.00217
1.99613
1.98127
1.97071
1.96089
1.94997
1.93826
1.9249
1.90986
1.92093
1.97931
2.09672
2.19112
2.25006
2.25745
2.25277
2.24372
2.22807
2.21342
2.1995
2.1868
2.17623
2.16507
2.15494
2.14298
2.12525
2.10448
2.09233
2.08567
2.08018
2.07497
2.06843
2.06078
2.04987
2.03188
2.011
1.99874
1.99069
1.9836
1.97866
1.97512
1.96952
1.96181
1.94896
1.9263
1.90395
1.89691
1.89437
1.89238
1.89211
1.89312
1.89156
1.88879
1.88276
1.86479
1.83716
1.82272
1.81902
1.8131
2.2213
2.14792
2.07289
1.99326
1.92103
1.86178
1.79747
1.72727
1.66753
1.63374
1.60497
1.56586
1.52257
1.47816
1.44238
1.42498
1.4121
1.39719
1.3732
1.34462
1.328
1.32292
1.31855
1.31639
1.3191
1.32502
1.33417
1.35137
1.37576
1.40402
1.43907
1.54873
1.79874
1.94217
1.99258
2.00723
2.00871
2.00375
1.98991
1.96929
1.95723
1.95053
1.94071
1.92851
1.91437
1.89421
1.8767
1.86884
1.89392
1.97338
2.09136
2.16986
2.2093
2.2159
2.20526
2.1905
2.1763
2.16471
2.15645
2.14556
2.13599
2.12641
2.11285
2.09298
2.07404
2.06309
2.05576
2.04881
2.04145
2.0342
2.0264
2.01536
1.99902
1.98241
1.97206
1.96472
1.95788
1.95087
1.9424
1.93229
1.92108
1.90721
1.89171
1.88175
1.87858
1.87683
1.87605
1.87589
1.87426
1.87011
1.86181
1.84391
1.81789
1.80389
1.80027
1.79339
2.22341
2.16141
2.09903
2.03299
1.96389
1.90195
1.8499
1.7931
1.73572
1.68687
1.64256
1.61054
1.58279
1.54931
1.5096
1.46892
1.44834
1.43293
1.41437
1.39257
1.37264
1.35336
1.33501
1.32154
1.31826
1.32001
1.32055
1.32267
1.3296
1.34988
1.47183
1.73055
1.89795
1.93816
1.96071
1.96519
1.96685
1.96507
1.95901
1.94888
1.9355
1.92878
1.92266
1.91061
1.89537
1.87511
1.8538
1.8425
1.83495
1.83788
1.87554
1.96777
2.07202
2.1381
2.15402
2.15018
2.14341
2.13671
2.13308
2.1267
2.11699
2.10663
2.09528
2.08027
2.06135
2.0446
2.03342
2.0253
2.01713
2.00924
2.00232
1.99504
1.98491
1.97069
1.95594
1.94487
1.93618
1.92773
1.91831
1.90803
1.89789
1.88982
1.88277
1.87433
1.86529
1.86104
1.85843
1.85451
1.849
1.84291
1.83533
1.82431
1.80986
1.79479
1.78673
1.77759
2.21909
2.16672
2.11235
2.0549
1.99738
1.94108
1.88503
1.83327
1.78757
1.74143
1.69621
1.65241
1.61912
1.59145
1.56124
1.52918
1.50119
1.47389
1.44807
1.43001
1.41695
1.39832
1.37864
1.35751
1.34194
1.33451
1.32609
1.32545
1.33576
1.43326
1.65693
1.8302
1.85639
1.87179
1.878
1.88387
1.88952
1.89782
1.90752
1.90708
1.89881
1.89554
1.89228
1.88241
1.87028
1.85425
1.83686
1.82173
1.81057
1.80414
1.79689
1.80891
1.85425
1.94121
2.01998
2.07852
2.09104
2.0922
2.09733
2.1005
2.09362
2.08526
2.07402
2.06057
2.04356
2.0253
2.01082
2.00194
1.99404
1.98613
1.97893
1.97213
1.96426
1.95331
1.93848
1.92354
1.91226
1.90321
1.89465
1.88616
1.87919
1.87456
1.87048
1.86441
1.85387
1.84237
1.83504
1.82955
1.82366
1.81703
1.80968
1.80331
1.79786
1.78942
1.77794
1.76427
2.2102
2.16569
2.11877
2.06825
2.01956
1.97053
1.91866
1.86908
1.82514
1.78152
1.74101
1.70056
1.66381
1.62785
1.59412
1.56959
1.54655
1.52114
1.49349
1.4673
1.44939
1.4302
1.41377
1.39665
1.37837
1.35831
1.34204
1.34539
1.42919
1.66292
1.79927
1.83977
1.83661
1.82814
1.81454
1.80089
1.79042
1.7911
1.80072
1.82237
1.83996
1.84587
1.84593
1.84293
1.83668
1.82706
1.81577
1.80338
1.78931
1.77929
1.77162
1.76707
1.75811
1.76826
1.80978
1.89255
1.97273
2.01532
2.04007
2.04909
2.06062
2.06024
2.05192
2.03977
2.02268
2.00256
1.98539
1.97624
1.96929
1.96215
1.95486
1.94745
1.9397
1.93004
1.91679
1.90069
1.88679
1.87714
1.86997
1.86463
1.86126
1.85832
1.85483
1.84943
1.83895
1.82276
1.81023
1.80305
1.797
1.79054
1.78548
1.78323
1.78092
1.77714
1.77069
1.75498
2.19997
2.16129
2.11808
2.07521
2.03286
1.98688
1.93904
1.89839
1.85638
1.81386
1.77102
1.73752
1.7027
1.66742
1.63153
1.60451
1.57931
1.556
1.53092
1.50684
1.4857
1.465
1.44462
1.43032
1.41257
1.39071
1.39413
1.47082
1.68813
1.83783
1.85906
1.84653
1.8257
1.80933
1.79629
1.78451
1.77003
1.7505
1.73415
1.7347
1.74366
1.75233
1.75934
1.76626
1.7751
1.78057
1.77696
1.77138
1.76481
1.75682
1.74871
1.73786
1.72828
1.72116
1.71075
1.72289
1.76914
1.84226
1.91546
1.95703
1.98817
2.00993
2.01803
2.01397
2.0014
1.98252
1.96277
1.94833
1.94038
1.93424
1.92718
1.91981
1.91286
1.90467
1.89277
1.87608
1.8598
1.85007
1.84483
1.84219
1.84039
1.83799
1.83444
1.82897
1.81938
1.80357
1.78693
1.77644
1.76985
1.76574
1.76367
1.76272
1.76198
1.75995
1.75617
1.74277
2.18963
2.15439
2.11582
2.07793
2.03889
1.99674
1.95562
1.91752
1.87862
1.8385
1.80095
1.76688
1.73151
1.69918
1.66696
1.64027
1.61137
1.585
1.56134
1.53943
1.51815
1.49678
1.47575
1.45634
1.43719
1.43826
1.51397
1.73084
1.89519
1.89744
1.87632
1.84834
1.82389
1.806
1.79141
1.77736
1.76239
1.7434
1.72361
1.70692
1.69407
1.68501
1.67954
1.67864
1.68114
1.6946
1.70322
1.70886
1.71608
1.71529
1.70814
1.69897
1.69502
1.69433
1.68947
1.6772
1.66198
1.67365
1.71781
1.79514
1.86099
1.91801
1.94881
1.96413
1.96645
1.9606
1.94532
1.92483
1.91109
1.90454
1.89679
1.8898
1.88424
1.87787
1.86732
1.85029
1.83206
1.82302
1.81969
1.81778
1.8163
1.81441
1.81106
1.80527
1.79571
1.7805
1.76273
1.75191
1.7475
1.74485
1.74276
1.74182
1.7413
1.73876
1.73533
1.72409
2.18067
2.14723
2.11208
2.07721
2.04021
2.00123
1.9666
1.9304
1.89336
1.85437
1.82381
1.79044
1.7576
1.72247
1.69465
1.66843
1.64019
1.61308
1.58789
1.56768
1.54471
1.52565
1.50302
1.47962
1.48137
1.56055
1.77503
1.9442
1.9419
1.91652
1.88796
1.86118
1.83903
1.8201
1.80242
1.7861
1.76996
1.75176
1.72695
1.69781
1.67871
1.6656
1.65532
1.64888
1.64514
1.63615
1.62646
1.62022
1.61996
1.62279
1.62988
1.64068
1.64937
1.64822
1.6468
1.64273
1.63483
1.62633
1.61969
1.63301
1.67391
1.74643
1.81552
1.87148
1.90578
1.91778
1.91742
1.90359
1.88524
1.87555
1.86683
1.85972
1.85419
1.84885
1.84063
1.82686
1.81033
1.79893
1.79369
1.79077
1.78922
1.78791
1.78552
1.78055
1.77177
1.75678
1.73833
1.72997
1.72798
1.72582
1.72303
1.72063
1.71833
1.71592
1.71384
1.7034
2.16574
2.13644
2.10597
2.07363
2.03814
2.00429
1.97262
1.93886
1.90174
1.86906
1.83974
1.80755
1.77595
1.74441
1.71954
1.69003
1.66303
1.63556
1.61463
1.59215
1.56901
1.54682
1.52274
1.52452
1.60821
1.82289
1.98665
1.98609
1.96072
1.92884
1.90214
1.87607
1.8519
1.83092
1.81205
1.79488
1.77849
1.76038
1.73681
1.7071
1.67888
1.66032
1.64717
1.63562
1.62444
1.61328
1.60504
1.59326
1.57087
1.55127
1.54952
1.55372
1.56418
1.57345
1.58759
1.59222
1.59062
1.58527
1.58073
1.57629
1.57324
1.58696
1.63083
1.69763
1.76839
1.82683
1.86369
1.864
1.85477
1.84863
1.84177
1.83303
1.82428
1.81803
1.81121
1.80146
1.79047
1.78139
1.77345
1.76611
1.76126
1.75912
1.7572
1.75392
1.74756
1.73619
1.7209
1.70984
1.70646
1.70425
1.70166
1.69864
1.69494
1.69013
1.68389
1.6698
2.14847
2.12342
2.09739
2.06851
2.03531
2.00519
1.97627
1.94432
1.90827
1.88061
1.85125
1.8222
1.78882
1.76327
1.73735
1.70879
1.6826
1.65581
1.6358
1.61269
1.58923
1.5645
1.56704
1.65869
1.87396
2.02755
2.02565
1.99994
1.96796
1.93911
1.91263
1.88584
1.8617
1.84034
1.82085
1.8027
1.7852
1.76659
1.74397
1.71496
1.68725
1.66751
1.65066
1.63457
1.61992
1.6058
1.59162
1.5765
1.55888
1.53718
1.52335
1.51392
1.5058
1.50182
1.50497
1.51065
1.51645
1.52112
1.52008
1.51938
1.51972
1.51932
1.52282
1.53921
1.58433
1.65095
1.72908
1.78716
1.80343
1.81097
1.81426
1.81045
1.79985
1.79014
1.78273
1.77498
1.76782
1.76085
1.75338
1.74586
1.73971
1.73418
1.7296
1.72591
1.72099
1.71384
1.70419
1.69188
1.68329
1.68009
1.67768
1.67479
1.6706
1.66395
1.65438
1.63767
2.12619
2.10566
2.08357
2.05912
2.03136
2.00349
1.97559
1.9447
1.91453
1.88815
1.85993
1.82851
1.79786
1.77649
1.75052
1.72501
1.69563
1.6742
1.65317
1.62827
1.60413
1.60993
1.71594
1.93003
2.0657
2.06106
2.03325
2.00226
1.97492
1.94932
1.9221
1.89446
1.86876
1.84588
1.82526
1.80615
1.78764
1.76882
1.74784
1.72184
1.69306
1.6705
1.65331
1.6376
1.62255
1.60686
1.59067
1.57343
1.55418
1.53234
1.51141
1.49545
1.48486
1.47863
1.47134
1.46307
1.4575
1.45403
1.45051
1.45112
1.45242
1.45197
1.45615
1.46195
1.46827
1.48993
1.5342
1.60768
1.67621
1.72459
1.76141
1.77173
1.76491
1.76232
1.76038
1.75501
1.74854
1.74088
1.73121
1.72222
1.71533
1.70968
1.70504
1.70104
1.69667
1.69115
1.68302
1.67123
1.65898
1.65442
1.65272
1.65004
1.64558
1.63886
1.62781
1.609
2.10952
2.09129
2.07158
2.04939
2.0251
2.00038
1.97414
1.94418
1.91708
1.89182
1.86533
1.8344
1.80822
1.78604
1.76105
1.73594
1.7094
1.69017
1.66702
1.64234
1.65346
1.77703
1.99169
2.10176
2.09617
2.06778
2.03723
2.01015
1.98447
1.95695
1.92782
1.89878
1.87187
1.84832
1.82734
1.80778
1.78883
1.76961
1.74872
1.72455
1.69828
1.67469
1.65535
1.63821
1.62185
1.60598
1.59056
1.57413
1.5559
1.53606
1.51284
1.49074
1.4758
1.46348
1.45238
1.44468
1.43854
1.43026
1.41947
1.41053
1.40106
1.39194
1.3897
1.39235
1.39775
1.40314
1.41199
1.43275
1.47734
1.54695
1.61638
1.68437
1.70751
1.71951
1.72333
1.72606
1.72529
1.72195
1.71188
1.69914
1.69025
1.68427
1.67895
1.67606
1.6739
1.66906
1.66086
1.65159
1.64176
1.63074
1.62352
1.62028
1.61814
1.61457
1.60638
1.59133
2.09019
2.07413
2.05613
2.03579
2.01467
1.99273
1.96815
1.9404
1.91672
1.89361
1.86769
1.83716
1.81592
1.79364
1.77091
1.74426
1.72127
1.7013
1.67913
1.69723
1.84499
2.05694
2.14052
2.12495
2.09265
2.06421
2.04031
2.01548
1.98845
1.95964
1.93009
1.90062
1.87337
1.84963
1.82835
1.8081
1.78787
1.76681
1.74478
1.72189
1.69841
1.67608
1.65661
1.63909
1.62201
1.6052
1.58902
1.57325
1.55709
1.54049
1.52232
1.50033
1.47717
1.45892
1.4454
1.43477
1.42494
1.41452
1.40462
1.39538
1.3845
1.36987
1.3594
1.3525
1.3486
1.3465
1.34857
1.35019
1.35339
1.37207
1.4168
1.48618
1.56178
1.6267
1.65852
1.67263
1.68622
1.6857
1.68223
1.67678
1.67388
1.66818
1.66187
1.65485
1.64662
1.64205
1.63802
1.63315
1.62465
1.61225
1.6025
1.59558
1.58861
1.58121
1.57862
1.57463
2.07204
2.05456
2.03833
2.02056
2.00181
1.98227
1.96047
1.93701
1.91472
1.89328
1.86825
1.84274
1.82242
1.80142
1.77762
1.75039
1.73132
1.71242
1.74208
1.92094
2.12928
2.18632
2.16509
2.12672
2.09143
2.064
2.04069
2.01617
1.98867
1.9593
1.92917
1.89979
1.87352
1.85077
1.82984
1.80907
1.7874
1.76451
1.74056
1.71644
1.69404
1.67424
1.6562
1.6388
1.62129
1.60363
1.58606
1.56912
1.55343
1.53892
1.52358
1.50631
1.48818
1.4689
1.44864
1.43118
1.41765
1.40659
1.39692
1.38612
1.37362
1.36169
1.34938
1.33718
1.32698
1.32219
1.31881
1.31363
1.30631
1.30176
1.30524
1.31786
1.35689
1.42079
1.4996
1.55837
1.61406
1.62624
1.63505
1.64101
1.64707
1.64711
1.64564
1.63989
1.63149
1.62516
1.61832
1.60818
1.59777
1.59119
1.5841
1.57399
1.56504
1.55876
1.55519
1.55136
2.06194
2.04279
2.02233
2.00513
1.98899
1.97169
1.95173
1.93151
1.91229
1.89153
1.86766
1.84558
1.82657
1.80551
1.78125
1.75753
1.74204
1.78357
1.98594
2.19454
2.22909
2.20173
2.15447
2.11585
2.08858
2.0644
2.04041
2.01525
1.9879
1.95857
1.92728
1.89619
1.8692
1.84646
1.82569
1.80527
1.78439
1.76261
1.73939
1.71464
1.68972
1.66715
1.64827
1.6317
1.6157
1.5996
1.58299
1.56552
1.54745
1.53051
1.51678
1.50545
1.4926
1.477
1.46009
1.44098
1.42087
1.40439
1.39195
1.38131
1.37122
1.36015
1.34679
1.33193
1.31984
1.31081
1.30078
1.29233
1.28826
1.28329
1.27457
1.26703
1.26347
1.26977
1.29942
1.3459
1.41505
1.48741
1.54837
1.59078
1.60002
1.60794
1.61012
1.61479
1.61517
1.61307
1.60537
1.59356
1.58244
1.56928
1.55567
1.55048
1.54673
1.54195
1.53892
1.53362
2.00614
2.03267
2.01315
1.99276
1.97695
1.96032
1.9412
1.92422
1.90677
1.88704
1.86463
1.84604
1.82788
1.80567
1.78256
1.76976
1.83198
2.04547
2.23171
2.2736
2.24297
2.19494
2.14693
2.11056
2.08394
2.05976
2.03557
2.01055
1.98393
1.95494
1.92305
1.89089
1.86279
1.83894
1.81738
1.7968
1.77661
1.75656
1.73607
1.71405
1.68982
1.6649
1.6425
1.62405
1.60813
1.59315
1.57817
1.56244
1.5455
1.52771
1.5105
1.49554
1.48375
1.47362
1.46128
1.44601
1.43
1.41291
1.39456
1.37584
1.35827
1.34715
1.33975
1.33228
1.32284
1.31076
1.29655
1.28206
1.27108
1.26513
1.25957
1.25424
1.24939
1.24251
1.23412
1.22992
1.23925
1.27477
1.33718
1.42224
1.50202
1.55967
1.56572
1.57055
1.57703
1.58137
1.5828
1.58139
1.57531
1.55961
1.54179
1.52863
1.52335
1.52419
1.52374
1.51831
1.81266
2.00092
1.99946
1.98183
1.96521
1.94908
1.93174
1.91627
1.8995
1.88056
1.86023
1.84519
1.82472
1.80456
1.79866
1.8779
2.12769
2.27276
2.26659
2.2511
2.21732
2.18225
2.14515
2.10803
2.07841
2.05154
2.02567
2.00057
1.97445
1.9462
1.91541
1.8837
1.85441
1.82914
1.80695
1.78649
1.76691
1.74793
1.72919
1.70955
1.68761
1.66351
1.63978
1.61902
1.60122
1.58513
1.56979
1.55491
1.54027
1.5252
1.50878
1.49117
1.47443
1.46034
1.45037
1.44205
1.43102
1.41548
1.39653
1.37555
1.35839
1.3453
1.3343
1.3261
1.31967
1.31278
1.30147
1.2834
1.26587
1.25359
1.24695
1.24289
1.23845
1.23258
1.22477
1.2173
1.20575
1.19495
1.19849
1.22593
1.28602
1.37174
1.44453
1.50551
1.53041
1.53662
1.54315
1.54869
1.55039
1.5486
1.54005
1.5245
1.51175
1.50552
1.50413
1.50346
1.3896
1.85243
1.97659
1.9706
1.95449
1.93651
1.92148
1.90686
1.8919
1.87332
1.85693
1.83897
1.8193
1.82345
1.93488
2.17799
2.32358
2.32213
2.28171
2.23311
2.20018
2.17178
2.14025
2.10329
2.06878
2.03945
2.01239
1.98642
1.96046
1.93339
1.90456
1.87435
1.84504
1.81929
1.79717
1.77729
1.75842
1.73987
1.72121
1.7018
1.68088
1.65836
1.63564
1.61466
1.59612
1.57961
1.5644
1.54983
1.53534
1.52056
1.50501
1.48834
1.47156
1.45654
1.44373
1.43308
1.42395
1.41377
1.39786
1.37586
1.35683
1.34568
1.33726
1.32898
1.32046
1.31181
1.30175
1.28739
1.27009
1.25372
1.24209
1.23483
1.22958
1.22495
1.22088
1.21415
1.20198
1.1864
1.17461
1.17051
1.17334
1.19081
1.23609
1.30391
1.37517
1.44338
1.48992
1.49762
1.50677
1.51741
1.52235
1.52212
1.51513
1.50118
1.48962
1.47907
1.04766
1.48863
1.86714
1.95393
1.94531
1.92527
1.9095
1.89697
1.88247
1.86612
1.84953
1.83337
1.84444
1.98375
2.24578
2.34255
2.32006
2.29509
2.26146
2.22559
2.1925
2.15997
2.12628
2.09087
2.05601
2.02452
1.99639
1.97039
1.94526
1.91977
1.89288
1.86422
1.83523
1.80885
1.78642
1.76705
1.74929
1.732
1.7143
1.69541
1.67491
1.65323
1.63158
1.61101
1.59182
1.57395
1.55747
1.54233
1.52825
1.51462
1.50092
1.48682
1.47221
1.45757
1.44297
1.42869
1.41535
1.40272
1.39046
1.37707
1.36213
1.3492
1.33891
1.32913
1.31905
1.30868
1.29854
1.28845
1.27415
1.2566
1.24301
1.23505
1.229
1.22233
1.21454
1.20602
1.19581
1.18156
1.1671
1.15954
1.15714
1.15626
1.15386
1.16012
1.1844
1.23104
1.30647
1.38318
1.44058
1.46116
1.4802
1.49821
1.5001
1.49847
1.49021
1.47133
1.00092
1.08913
1.56217
1.8684
1.93249
1.92033
1.90024
1.88562
1.87213
1.8574
1.84056
1.86533
2.05027
2.27827
2.38325
2.36356
2.30579
2.26297
2.23473
2.20764
2.17624
2.14169
2.10686
2.07306
2.04055
2.01033
1.98286
1.95747
1.93314
1.90881
1.88352
1.85675
1.8292
1.80302
1.7799
1.75978
1.74151
1.7239
1.70618
1.68785
1.66855
1.64842
1.62813
1.60854
1.58972
1.57143
1.55401
1.53771
1.52225
1.50751
1.49361
1.48066
1.46783
1.45476
1.44125
1.427
1.41235
1.39798
1.3839
1.37109
1.35991
1.34953
1.33907
1.32827
1.31809
1.30927
1.29947
1.28571
1.2675
1.25281
1.24515
1.23894
1.23217
1.22443
1.21564
1.20608
1.19353
1.17833
1.16482
1.15554
1.15127
1.14739
1.14229
1.13799
1.13197
1.12874
1.14118
1.18183
1.24937
1.32832
1.39865
1.43113
1.45131
1.47361
1.47566
1.46909
1
1.00255
1.13819
1.61292
1.85968
1.91064
1.89794
1.87953
1.86125
1.84758
1.88446
2.10385
2.33454
2.36866
2.35448
2.32707
2.28989
2.25167
2.21943
2.18821
2.15677
2.1245
2.09239
2.06092
2.03038
2.00162
1.9749
1.94982
1.92569
1.90177
1.8773
1.85176
1.82559
1.80026
1.77698
1.75583
1.73627
1.71751
1.69896
1.68071
1.66291
1.64482
1.62586
1.6067
1.58747
1.56813
1.5496
1.53261
1.5174
1.5039
1.49144
1.47849
1.46448
1.45117
1.43912
1.42656
1.4121
1.39728
1.38342
1.37051
1.35782
1.34496
1.33362
1.3254
1.31798
1.30913
1.29683
1.28204
1.26826
1.25616
1.24561
1.23587
1.22757
1.22205
1.21704
1.20926
1.19595
1.18119
1.16945
1.16058
1.15266
1.1462
1.13953
1.13233
1.12505
1.12001
1.11556
1.11501
1.11961
1.14581
1.19902
1.27136
1.33854
1.38473
1.4188
1.44327
1
1.00002
1.00561
1.18788
1.64517
1.84695
1.89056
1.87806
1.85531
1.91151
2.14686
2.35388
2.40711
2.37069
2.32591
2.29742
2.27358
2.2433
2.2095
2.17605
2.14441
2.11397
2.08398
2.05445
2.02579
1.99848
1.97254
1.94763
1.92322
1.89881
1.87412
1.84927
1.82446
1.8002
1.77722
1.75553
1.73476
1.71468
1.69477
1.67521
1.65707
1.64066
1.62442
1.60707
1.58903
1.57022
1.55025
1.53104
1.51455
1.49987
1.4862
1.47373
1.46275
1.45178
1.44024
1.42928
1.41913
1.4072
1.39199
1.3754
1.36013
1.34757
1.33837
1.32958
1.31793
1.30659
1.29897
1.29053
1.27834
1.26286
1.24822
1.23876
1.23222
1.22501
1.21558
1.20697
1.20141
1.19461
1.18098
1.16133
1.14904
1.14417
1.1408
1.13668
1.13112
1.12473
1.1187
1.10959
1.10276
1.09894
1.10133
1.11283
1.14337
1.20491
1.26722
1.35803
1
1
1.00005
1.01047
1.23099
1.6617
1.84064
1.85541
1.9437
2.20726
2.37
2.41886
2.40674
2.37981
2.34086
2.30701
2.27614
2.24447
2.20996
2.17501
2.14238
2.1123
2.08314
2.05418
2.0262
2.00006
1.9753
1.95103
1.92656
1.90145
1.87558
1.84952
1.82443
1.80069
1.77786
1.75552
1.73375
1.71285
1.69276
1.67355
1.65571
1.63915
1.62266
1.60468
1.5852
1.56668
1.55222
1.53955
1.52393
1.50564
1.48788
1.47274
1.4598
1.44876
1.43886
1.42876
1.41674
1.40145
1.38386
1.36624
1.35153
1.34212
1.33527
1.328
1.31927
1.30972
1.2976
1.28293
1.26796
1.25416
1.24276
1.23451
1.22822
1.22224
1.21606
1.20981
1.20181
1.19063
1.17534
1.15975
1.15103
1.14474
1.1382
1.13174
1.12559
1.11927
1.11293
1.10529
1.09781
1.08928
1.08247
1.07721
1.07651
1.08162
1.09827
1.18603
1
1
1
1.00011
1.01651
1.26999
1.63649
1.86534
2.27757
2.44296
2.49416
2.4701
2.44691
2.42116
2.38128
2.3387
2.30308
2.26478
2.22575
2.1873
2.15093
2.11777
2.08796
2.06072
2.03525
2.01111
1.98745
1.96335
1.93817
1.91153
1.88407
1.85751
1.83281
1.80873
1.78415
1.7593
1.73477
1.71118
1.68975
1.67071
1.65327
1.63679
1.62123
1.60538
1.58753
1.56962
1.55418
1.53779
1.51895
1.50046
1.48423
1.46977
1.4576
1.44757
1.43816
1.42772
1.41502
1.39939
1.38122
1.36424
1.35241
1.34376
1.33557
1.32724
1.31887
1.30924
1.29665
1.28114
1.26446
1.25069
1.24205
1.23552
1.22912
1.22247
1.21592
1.2091
1.20054
1.18943
1.17577
1.16242
1.15207
1.14413
1.13724
1.13091
1.1246
1.1183
1.11191
1.10477
1.09663
1.08749
1.07831
1.0727
1.07082
1.06983
1.06825
1.07427
1
1
1
1
1.00025
1.02245
1.29927
2.20929
2.62323
2.61163
2.57919
2.53993
2.50667
2.47422
2.4313
2.38557
2.33921
2.29072
2.24478
2.2023
2.16337
2.12829
2.0972
2.06946
2.04377
2.01878
1.9939
1.9689
1.94356
1.91746
1.89054
1.86317
1.83558
1.80836
1.78218
1.75702
1.73284
1.70996
1.68899
1.67028
1.65363
1.63791
1.6213
1.60417
1.59133
1.58004
1.56387
1.54206
1.5188
1.5029
1.49016
1.47805
1.46741
1.45779
1.44824
1.43781
1.42558
1.41051
1.39258
1.37533
1.36251
1.35287
1.34466
1.33705
1.32892
1.31888
1.30549
1.28853
1.27199
1.2605
1.25235
1.24491
1.23734
1.22982
1.22266
1.21561
1.20798
1.19883
1.18679
1.17162
1.15922
1.152
1.14597
1.13971
1.13327
1.12704
1.12084
1.1137
1.10423
1.0925
1.08166
1.07648
1.07375
1.07137
1.06862
1.06061
1
1
1
1
1
1.00028
1.37231
2.56794
2.76912
2.72837
2.67013
2.61714
2.56492
2.52063
2.46925
2.41511
2.35887
2.30495
2.2551
2.21043
2.17076
2.13565
2.10419
2.07569
2.04916
2.02315
1.99728
1.97149
1.94562
1.91964
1.89338
1.86622
1.83794
1.80946
1.78173
1.75535
1.73112
1.70944
1.68978
1.6713
1.65313
1.63567
1.62039
1.60721
1.59301
1.57467
1.5544
1.53434
1.51574
1.49747
1.48075
1.46735
1.45656
1.44706
1.43768
1.42743
1.41534
1.4004
1.38261
1.36509
1.35173
1.34209
1.33411
1.32656
1.31832
1.30793
1.29376
1.27642
1.2614
1.25149
1.24371
1.23611
1.22832
1.22075
1.21338
1.20583
1.19796
1.18899
1.17702
1.16135
1.14963
1.14341
1.13776
1.13165
1.125
1.11833
1.11194
1.10474
1.09496
1.08263
1.0716
1.06703
1.0643
1.06206
1.05909
1.05042
)
;

boundaryField
{
    inlet
    {
        type            fixedValue;
        value           uniform 1;
    }
    outlet
    {
        type            inletOutlet;
        inletValue      uniform 1;
        value           nonuniform List<scalar> 
32
(
1.96405
1.95812
1.9355
1.90322
1.86855
1.83823
1.81417
1.79434
1.77837
1.76472
1.75419
1.74158
1.72309
1.70201
1.66821
1.63601
1.60773
1.59088
1.57542
1.55206
1.534
1.51891
1.50431
1.4793
1.46965
1.46806
1.44268
1.35517
1.18226
1.07317
1.06014
1.05004
)
;
    }
    bottom
    {
        type            symmetryPlane;
    }
    top
    {
        type            symmetryPlane;
    }
    obstacle
    {
        type            zeroGradient;
    }
    defaultFaces
    {
        type            empty;
    }
}


// ************************************************************************* //
