/*--------------------------------*- C++ -*----------------------------------*\
  =========                 |
  \\      /  F ield         | OpenFOAM: The Open Source CFD Toolbox
   \\    /   O peration     | Website:  https://openfoam.org
    \\  /    A nd           | Version:  7
     \\/     M anipulation  |
\*---------------------------------------------------------------------------*/
FoamFile
{
    version     2.0;
    format      ascii;
    class       volVectorField;
    location    "0.3";
    object      U;
}
// * * * * * * * * * * * * * * * * * * * * * * * * * * * * * * * * * * * * * //

dimensions      [0 1 -1 0 0 0 0];

internalField   nonuniform List<vector> 
64512
(
(3 1.32188e-16 0)
(3 2.58943e-16 0)
(3 5.15691e-16 0)
(3 3.5803e-16 0)
(3 6.73812e-16 0)
(3 1.21673e-15 0)
(3 1.70684e-15 0)
(3 2.30074e-15 0)
(3 2.01268e-15 0)
(3 1.22253e-15 0)
(3 5.37498e-16 0)
(3 5.34765e-16 0)
(3 2.82845e-16 0)
(3 -2.89398e-16 0)
(3 -4.81852e-16 0)
(3 -4.49767e-17 0)
(3 1.41167e-16 0)
(3 3.68622e-16 0)
(3 7.94284e-17 0)
(3 -3.47262e-16 0)
(3 -8.00252e-17 0)
(3 -3.27338e-17 0)
(3 -1.35933e-16 0)
(3 -5.93336e-16 0)
(3 -4.04958e-16 0)
(3 -5.59687e-16 0)
(3 -5.32575e-16 0)
(3 -4.93082e-16 0)
(3 -2.95473e-16 0)
(3 -6.7306e-16 0)
(3 -1.12131e-15 0)
(3 -6.37211e-16 0)
(3 -1.02323e-16 0)
(3 -1.75122e-16 0)
(3 8.87287e-16 0)
(3 1.23704e-15 0)
(3 6.97428e-16 0)
(3 -1.64805e-16 0)
(3 -4.21687e-16 0)
(3 -8.23398e-16 0)
(3 -1.03203e-15 0)
(3 -9.79253e-16 0)
(3 -1.3676e-15 0)
(3 -2.21376e-15 0)
(3 -1.42006e-15 0)
(3 -8.02148e-16 0)
(3 -7.30675e-16 0)
(3 -8.05222e-16 0)
(3 -4.67275e-16 0)
(3 -5.31296e-16 0)
(3 -5.63601e-16 0)
(3 -5.1281e-16 0)
(3 -7.468e-16 0)
(3 -8.15326e-16 0)
(3 -3.72094e-16 0)
(3 -7.59779e-17 0)
(3 -1.31117e-17 0)
(3 -3.01103e-16 0)
(3 -6.14618e-16 0)
(3 -1.25987e-15 0)
(3 -8.40426e-16 0)
(3 -6.61707e-16 0)
(3 -5.58834e-16 0)
(3 -1.17302e-16 0)
(3 2.35611e-16 0)
(3 3.11385e-16 0)
(1.8034 0.00533598 0)
(0.643939 0.00801811 0)
(0.502652 0.00910333 0)
(0.479376 0.00910543 0)
(0.463595 0.0099735 0)
(0.457924 0.0103322 0)
(0.456527 0.010602 0)
(0.453821 0.0108693 0)
(0.44268 0.0109932 0)
(0.42012 0.0109028 0)
(0.383531 0.0105619 0)
(0.341267 0.0101865 0)
(0.308926 0.0102607 0)
(0.293182 0.0107705 0)
(0.286372 0.0118518 0)
(0.279863 0.0127285 0)
(0.269891 0.0133627 0)
(0.251607 0.0128598 0)
(0.217156 0.0114304 0)
(0.172961 0.0100296 0)
(0.145717 0.00922957 0)
(0.132414 0.00899103 0)
(0.127032 0.00903554 0)
(0.122506 0.00904769 0)
(0.115496 0.00916507 0)
(0.0955271 0.00918451 0)
(0.0598653 0.0091622 0)
(0.0310879 0.00921382 0)
(0.0102065 0.00905616 0)
(0.00878112 0.0098192 0)
(3 5.81057e-16 0)
(3 9.12885e-16 0)
(3 1.18787e-15 0)
(3 1.1282e-15 0)
(3 1.77873e-15 0)
(3 2.06133e-15 0)
(3 2.4864e-15 0)
(3 2.5949e-15 0)
(3 2.53816e-15 0)
(3 1.74883e-15 0)
(3 1.68327e-15 0)
(3 1.32401e-15 0)
(3 5.65478e-16 0)
(3 -6.49495e-16 0)
(3 -1.00088e-15 0)
(3 -2.7081e-16 0)
(3 1.5019e-16 0)
(3 6.08997e-16 0)
(3 7.26088e-16 0)
(3 6.83299e-16 0)
(3 4.30781e-16 0)
(3 -5.82198e-17 0)
(3 -9.58852e-16 0)
(3 -1.1999e-15 0)
(3 -1.78967e-16 0)
(3 1.0692e-16 0)
(3 -1.86249e-16 0)
(3 -4.39007e-16 0)
(3 -4.79572e-16 0)
(3 -1.07175e-15 0)
(3 -1.11848e-15 0)
(3 -8.52687e-16 0)
(3 1.08941e-17 0)
(3 3.04921e-16 0)
(3 7.14729e-16 0)
(3 1.38265e-15 0)
(3 1.28428e-15 0)
(3 1.15483e-15 0)
(3 4.66841e-16 0)
(3 -1.16139e-15 0)
(3 -1.20736e-15 0)
(3 -1.19406e-15 0)
(3 -1.61799e-15 0)
(3 -2.19855e-15 0)
(3 -1.88173e-15 0)
(3 -1.01423e-15 0)
(3 -5.50613e-16 0)
(3 -1.52049e-15 0)
(3 -7.90386e-16 0)
(3 -4.22924e-16 0)
(3 7.3593e-17 0)
(3 -1.1991e-16 0)
(3 -9.08598e-16 0)
(3 -1.44758e-15 0)
(3 -3.79223e-16 0)
(3 1.51716e-16 0)
(3 2.9063e-16 0)
(3 -1.05488e-16 0)
(3 6.45909e-16 0)
(3 -2.8485e-16 0)
(3 -1.68722e-16 0)
(3 -1.75819e-16 0)
(3 -1.1087e-16 0)
(3 -2.5956e-16 0)
(3 4.55769e-16 0)
(3 2.74593e-15 0)
(1.817 0.0257992 0)
(0.640464 0.0328699 0)
(0.496438 0.0285138 0)
(0.474099 0.0265377 0)
(0.45879 0.028547 0)
(0.453599 0.0297343 0)
(0.451934 0.0307342 0)
(0.44883 0.0314877 0)
(0.437045 0.0320031 0)
(0.413975 0.0319426 0)
(0.376876 0.0310319 0)
(0.334483 0.0298563 0)
(0.302255 0.0297016 0)
(0.286166 0.0309775 0)
(0.278831 0.0335216 0)
(0.272034 0.0358387 0)
(0.262383 0.0374827 0)
(0.245002 0.0366115 0)
(0.211285 0.0331885 0)
(0.168145 0.0293038 0)
(0.142522 0.0268858 0)
(0.130249 0.0262811 0)
(0.125513 0.0267563 0)
(0.120918 0.0270606 0)
(0.113762 0.0276683 0)
(0.093594 0.0278466 0)
(0.0581931 0.0276943 0)
(0.0301598 0.0276991 0)
(0.00975306 0.0272132 0)
(0.00885444 0.0292803 0)
(3 1.27257e-16 0)
(3 4.59079e-16 0)
(3 3.53718e-16 0)
(3 6.90618e-16 0)
(3 4.29078e-16 0)
(3 1.88099e-16 0)
(3 -8.5847e-17 0)
(3 2.60377e-16 0)
(3 8.11898e-16 0)
(3 6.43412e-16 0)
(3 5.12056e-16 0)
(3 8.10691e-16 0)
(3 7.1951e-16 0)
(3 6.27104e-16 0)
(3 1.1125e-15 0)
(3 1.02782e-15 0)
(3 9.43889e-16 0)
(3 5.3644e-16 0)
(3 1.33335e-15 0)
(3 1.51336e-15 0)
(3 1.10367e-15 0)
(3 2.3265e-16 0)
(3 -1.67002e-16 0)
(3 -3.66195e-16 0)
(3 7.15434e-16 0)
(3 1.42537e-15 0)
(3 1.27085e-15 0)
(3 6.98311e-16 0)
(3 1.53368e-16 0)
(3 2.60884e-16 0)
(3 8.32482e-16 0)
(3 4.81005e-16 0)
(3 4.15269e-16 0)
(3 4.18869e-16 0)
(3 6.09808e-16 0)
(3 3.32125e-16 0)
(3 7.77657e-16 0)
(3 3.88918e-16 0)
(3 -1.75462e-17 0)
(3 -4.88256e-16 0)
(3 -1.51313e-15 0)
(3 -2.25032e-15 0)
(3 -1.82673e-15 0)
(3 -1.30954e-15 0)
(3 -1.63072e-15 0)
(3 -2.47434e-15 0)
(3 -2.20967e-15 0)
(3 -6.27547e-16 0)
(3 -4.05007e-17 0)
(3 1.85896e-15 0)
(3 1.81357e-15 0)
(3 1.38562e-15 0)
(3 5.84183e-16 0)
(3 -2.73926e-16 0)
(3 -3.34402e-16 0)
(3 4.19795e-16 0)
(3 8.75259e-16 0)
(3 9.74767e-16 0)
(3 9.05015e-16 0)
(3 5.71644e-16 0)
(3 -1.90225e-16 0)
(3 -5.96967e-16 0)
(3 -1.35854e-15 0)
(3 -1.12849e-15 0)
(3 4.43219e-16 0)
(3 -9.38181e-16 0)
(1.85874 0.0453057 0)
(0.644757 0.0572925 0)
(0.497048 0.0478816 0)
(0.476259 0.0448651 0)
(0.461186 0.0480757 0)
(0.456139 0.05029 0)
(0.453624 0.0521434 0)
(0.449503 0.0532797 0)
(0.436407 0.0539074 0)
(0.412186 0.0535911 0)
(0.374142 0.0523176 0)
(0.331636 0.0510655 0)
(0.299739 0.0512522 0)
(0.283417 0.0537194 0)
(0.275374 0.0575984 0)
(0.267662 0.0607107 0)
(0.257351 0.0618152 0)
(0.239749 0.0593552 0)
(0.205859 0.0536195 0)
(0.163671 0.0476649 0)
(0.139994 0.0442918 0)
(0.128965 0.0434438 0)
(0.125143 0.0443049 0)
(0.120465 0.0449178 0)
(0.113075 0.045932 0)
(0.0924479 0.0461285 0)
(0.0571615 0.0458152 0)
(0.0299177 0.045882 0)
(0.00974773 0.0452378 0)
(0.00919179 0.0482652 0)
(3 -4.06558e-16 0)
(3 -4.91648e-16 0)
(3 -4.29407e-16 0)
(3 -2.18659e-16 0)
(3 -6.58172e-16 0)
(3 -7.75219e-16 0)
(3 -7.68295e-16 0)
(3 -6.8678e-16 0)
(3 -5.43716e-16 0)
(3 -5.03562e-16 0)
(3 -3.80267e-16 0)
(3 4.5854e-16 0)
(3 1.16715e-15 0)
(3 2.10056e-15 0)
(3 2.50348e-15 0)
(3 1.92521e-15 0)
(3 1.53493e-15 0)
(3 1.47101e-15 0)
(3 1.53801e-15 0)
(3 1.44007e-15 0)
(3 1.31897e-15 0)
(3 1.29229e-15 0)
(3 1.97683e-15 0)
(3 2.61443e-15 0)
(3 2.04632e-15 0)
(3 2.14221e-15 0)
(3 9.31189e-16 0)
(3 3.50601e-16 0)
(3 -8.71514e-17 0)
(3 3.91379e-16 0)
(3 -1.73802e-16 0)
(3 -3.05209e-16 0)
(3 -6.2516e-17 0)
(3 -4.48574e-18 0)
(3 2.8674e-16 0)
(3 -1.32763e-16 0)
(3 -7.26614e-16 0)
(3 -1.48711e-15 0)
(3 -1.30787e-15 0)
(3 -8.73663e-16 0)
(3 -1.63342e-15 0)
(3 -2.14247e-15 0)
(3 -1.40084e-15 0)
(3 -8.32036e-16 0)
(3 -9.88664e-16 0)
(3 -3.33819e-15 0)
(3 -3.38248e-15 0)
(3 -1.91488e-15 0)
(3 4.04313e-18 0)
(3 -1.14062e-16 0)
(3 -5.36369e-16 0)
(3 -3.84585e-16 0)
(3 -5.35115e-16 0)
(3 -6.58597e-16 0)
(3 -7.81715e-17 0)
(3 4.73627e-16 0)
(3 1.64877e-15 0)
(3 1.67931e-15 0)
(3 5.56765e-16 0)
(3 -4.4422e-16 0)
(3 -7.08084e-16 0)
(3 -1.2116e-15 0)
(3 -1.721e-15 0)
(3 -1.60344e-15 0)
(3 -1.22982e-15 0)
(3 -1.5326e-15 0)
(1.9192 0.0622134 0)
(0.649619 0.0809568 0)
(0.49778 0.066354 0)
(0.481066 0.0627998 0)
(0.466879 0.0668826 0)
(0.462705 0.0704652 0)
(0.459552 0.0733475 0)
(0.454113 0.0750307 0)
(0.439836 0.0756562 0)
(0.414535 0.0751387 0)
(0.375765 0.073653 0)
(0.333698 0.0725224 0)
(0.303029 0.0732495 0)
(0.287398 0.0769478 0)
(0.279287 0.0821798 0)
(0.270703 0.0858715 0)
(0.259245 0.086117 0)
(0.24024 0.0820318 0)
(0.204915 0.0737221 0)
(0.163023 0.0657141 0)
(0.14101 0.0614771 0)
(0.130948 0.0603951 0)
(0.127649 0.0615619 0)
(0.122313 0.0627003 0)
(0.114108 0.0642469 0)
(0.0924141 0.0644695 0)
(0.0570557 0.0639265 0)
(0.0307081 0.0641023 0)
(0.0105228 0.0634414 0)
(0.00973597 0.0673136 0)
(3 7.7012e-17 0)
(3 1.58923e-16 0)
(3 3.58435e-16 0)
(3 -3.18413e-17 0)
(3 -5.94889e-16 0)
(3 -1.40182e-15 0)
(3 -1.99967e-15 0)
(3 -2.41868e-15 0)
(3 -3.13523e-15 0)
(3 -1.55074e-15 0)
(3 -4.95975e-16 0)
(3 -3.9342e-16 0)
(3 -3.16625e-16 0)
(3 6.33694e-16 0)
(3 4.99837e-16 0)
(3 4.24342e-16 0)
(3 -1.5898e-17 0)
(3 7.71127e-17 0)
(3 2.29653e-16 0)
(3 6.01247e-16 0)
(3 7.28417e-16 0)
(3 9.06993e-16 0)
(3 9.18316e-16 0)
(3 1.18675e-15 0)
(3 1.09589e-15 0)
(3 5.3521e-16 0)
(3 -7.31427e-16 0)
(3 -7.06245e-16 0)
(3 -6.16087e-16 0)
(3 -5.78101e-16 0)
(3 -2.16897e-16 0)
(3 3.27617e-16 0)
(3 4.24758e-16 0)
(3 5.36411e-16 0)
(3 5.35903e-16 0)
(3 9.17143e-16 0)
(3 -3.7868e-16 0)
(3 -1.3214e-15 0)
(3 -1.21042e-15 0)
(3 -1.27702e-15 0)
(3 -7.95438e-16 0)
(3 -5.79388e-16 0)
(3 -2.50007e-16 0)
(3 3.7708e-16 0)
(3 1.12744e-15 0)
(3 -1.10254e-15 0)
(3 -1.9183e-15 0)
(3 -1.98334e-15 0)
(3 -1.78049e-15 0)
(3 -1.85223e-15 0)
(3 -1.09796e-15 0)
(3 -1.11876e-15 0)
(3 -9.12365e-16 0)
(3 4.78814e-16 0)
(3 5.83865e-16 0)
(3 1.14624e-15 0)
(3 1.84893e-15 0)
(3 1.89627e-15 0)
(3 1.83376e-15 0)
(3 1.4834e-15 0)
(3 2.35707e-16 0)
(3 -6.62237e-16 0)
(3 -6.06158e-16 0)
(3 -9.397e-16 0)
(3 -1.7312e-16 0)
(3 9.64376e-16 0)
(2.00012 0.0776732 0)
(0.655496 0.103464 0)
(0.497581 0.083366 0)
(0.485727 0.0809925 0)
(0.472546 0.0862264 0)
(0.468949 0.0914869 0)
(0.464894 0.0949396 0)
(0.457617 0.0968578 0)
(0.442189 0.0972921 0)
(0.415678 0.0965359 0)
(0.376623 0.0948228 0)
(0.335816 0.0938492 0)
(0.307621 0.0953771 0)
(0.293752 0.100349 0)
(0.286352 0.10686 0)
(0.27724 0.111192 0)
(0.264574 0.11056 0)
(0.243309 0.10487 0)
(0.205654 0.0941125 0)
(0.163569 0.0841338 0)
(0.14291 0.0789202 0)
(0.133413 0.0775804 0)
(0.130236 0.079119 0)
(0.123716 0.0808296 0)
(0.114313 0.0827653 0)
(0.0912477 0.0828769 0)
(0.05614 0.0820766 0)
(0.0313064 0.0824799 0)
(0.0114158 0.0819381 0)
(0.0103461 0.0865218 0)
(3 1.59374e-17 0)
(3 2.12875e-16 0)
(3 2.39957e-16 0)
(3 -1.41025e-16 0)
(3 -2.80606e-16 0)
(3 -2.6408e-16 0)
(3 -7.53122e-16 0)
(3 -9.12071e-16 0)
(3 -7.47558e-16 0)
(3 -1.3947e-16 0)
(3 -5.17147e-17 0)
(3 7.91078e-17 0)
(3 -5.5345e-16 0)
(3 -1.39021e-15 0)
(3 -8.36345e-16 0)
(3 3.22943e-16 0)
(3 1.81981e-16 0)
(3 -5.32427e-17 0)
(3 -7.76809e-16 0)
(3 -1.22287e-16 0)
(3 2.5971e-16 0)
(3 4.84878e-16 0)
(3 4.85406e-16 0)
(3 -2.10856e-16 0)
(3 -5.35234e-16 0)
(3 -1.43108e-16 0)
(3 -2.67369e-16 0)
(3 -1.54815e-16 0)
(3 9.22601e-16 0)
(3 1.13217e-15 0)
(3 1.86029e-15 0)
(3 1.65657e-15 0)
(3 1.81643e-15 0)
(3 1.55779e-15 0)
(3 1.20027e-15 0)
(3 7.42189e-16 0)
(3 1.57116e-15 0)
(3 6.08608e-16 0)
(3 -1.17474e-18 0)
(3 -5.76812e-16 0)
(3 -2.93188e-16 0)
(3 1.18094e-16 0)
(3 1.47432e-16 0)
(3 6.83539e-16 0)
(3 3.02364e-16 0)
(3 -1.70671e-16 0)
(3 -8.15422e-16 0)
(3 -6.5149e-16 0)
(3 -1.07782e-15 0)
(3 -3.19334e-16 0)
(3 -1.80481e-16 0)
(3 1.82975e-16 0)
(3 1.51358e-15 0)
(3 2.69852e-15 0)
(3 2.69996e-15 0)
(3 2.3025e-15 0)
(3 1.16863e-15 0)
(3 9.40607e-16 0)
(3 1.82864e-15 0)
(3 5.55927e-16 0)
(3 -7.57174e-16 0)
(3 -9.68044e-16 0)
(3 -7.29592e-16 0)
(3 -1.09152e-15 0)
(3 -4.91926e-16 0)
(3 -2.30272e-15 0)
(2.10418 0.0909632 0)
(0.664094 0.125124 0)
(0.49794 0.0995725 0)
(0.491428 0.0992179 0)
(0.479201 0.106127 0)
(0.47543 0.113047 0)
(0.470033 0.116501 0)
(0.460389 0.118416 0)
(0.443604 0.118531 0)
(0.415742 0.117467 0)
(0.376582 0.115419 0)
(0.337519 0.114554 0)
(0.31268 0.117327 0)
(0.300935 0.123718 0)
(0.294319 0.131495 0)
(0.284667 0.13651 0)
(0.270469 0.135379 0)
(0.246202 0.128726 0)
(0.205869 0.115718 0)
(0.163816 0.103654 0)
(0.144772 0.0970321 0)
(0.135972 0.0952858 0)
(0.132936 0.0971388 0)
(0.125079 0.0993113 0)
(0.114309 0.101382 0)
(0.0897307 0.101206 0)
(0.0553024 0.100143 0)
(0.0323665 0.100922 0)
(0.0129121 0.100632 0)
(0.0110845 0.105868 0)
(3 -6.95542e-17 0)
(3 -1.41682e-16 0)
(3 -2.71258e-16 0)
(3 6.46245e-17 0)
(3 3.69158e-16 0)
(3 5.16196e-16 0)
(3 7.20399e-16 0)
(3 1.22081e-15 0)
(3 1.36649e-15 0)
(3 1.42194e-15 0)
(3 1.59674e-15 0)
(3 7.24968e-16 0)
(3 6.33379e-18 0)
(3 5.56074e-17 0)
(3 3.30802e-16 0)
(3 5.54348e-16 0)
(3 8.14415e-16 0)
(3 1.33443e-15 0)
(3 1.11771e-15 0)
(3 8.73508e-16 0)
(3 9.48712e-16 0)
(3 1.48665e-15 0)
(3 1.04926e-15 0)
(3 2.46139e-16 0)
(3 -1.61569e-18 0)
(3 2.70087e-17 0)
(3 1.02763e-15 0)
(3 2.63016e-15 0)
(3 3.33006e-15 0)
(3 3.45213e-15 0)
(3 3.22684e-15 0)
(3 1.67674e-15 0)
(3 1.05326e-15 0)
(3 1.25566e-15 0)
(3 8.49521e-16 0)
(3 -7.18772e-16 0)
(3 -1.95816e-16 0)
(3 5.58754e-16 0)
(3 4.01555e-16 0)
(3 1.98213e-16 0)
(3 1.4955e-15 0)
(3 2.41811e-15 0)
(3 1.61553e-15 0)
(3 3.95592e-16 0)
(3 -5.63532e-17 0)
(3 -2.35763e-16 0)
(3 6.74011e-16 0)
(3 1.14049e-15 0)
(3 1.28244e-15 0)
(3 7.69363e-16 0)
(3 1.23662e-16 0)
(3 4.4163e-16 0)
(3 2.26172e-15 0)
(3 2.71794e-15 0)
(3 3.63805e-15 0)
(3 3.49904e-15 0)
(3 2.4669e-15 0)
(3 3.10801e-16 0)
(3 -8.61744e-16 0)
(3 -1.48673e-15 0)
(3 -9.1508e-16 0)
(3 -1.06514e-15 0)
(3 -1.16467e-15 0)
(3 -1.20405e-15 0)
(3 -5.5656e-16 0)
(3 -6.37252e-15 0)
(2.23363 0.100515 0)
(0.678547 0.145582 0)
(0.500166 0.115667 0)
(0.498553 0.117971 0)
(0.487005 0.127361 0)
(0.482145 0.135074 0)
(0.475038 0.13798 0)
(0.462722 0.139681 0)
(0.444259 0.139367 0)
(0.414759 0.137831 0)
(0.375453 0.135371 0)
(0.338722 0.134775 0)
(0.318078 0.139256 0)
(0.308219 0.146949 0)
(0.302024 0.155909 0)
(0.291643 0.161818 0)
(0.27575 0.160692 0)
(0.248411 0.153513 0)
(0.20594 0.138369 0)
(0.164665 0.124147 0)
(0.147608 0.11576 0)
(0.139585 0.113324 0)
(0.136356 0.115386 0)
(0.126793 0.11792 0)
(0.114281 0.120008 0)
(0.0879332 0.119477 0)
(0.054625 0.118254 0)
(0.0338154 0.119559 0)
(0.0150062 0.119685 0)
(0.0119028 0.125463 0)
(3 1.29152e-16 0)
(3 4.20287e-16 0)
(3 6.52775e-16 0)
(3 5.1662e-16 0)
(3 2.86211e-16 0)
(3 2.47055e-16 0)
(3 4.26842e-16 0)
(3 1.59551e-16 0)
(3 8.29873e-16 0)
(3 6.25991e-16 0)
(3 1.33282e-15 0)
(3 9.65658e-16 0)
(3 2.98871e-16 0)
(3 9.74282e-17 0)
(3 -1.96552e-17 0)
(3 2.04095e-17 0)
(3 1.00788e-15 0)
(3 1.47053e-15 0)
(3 2.04173e-15 0)
(3 2.11677e-15 0)
(3 1.95978e-15 0)
(3 1.4568e-15 0)
(3 3.55992e-16 0)
(3 -5.7473e-16 0)
(3 -8.66164e-16 0)
(3 -5.51053e-16 0)
(3 2.20837e-16 0)
(3 1.0418e-15 0)
(3 2.91336e-15 0)
(3 2.93224e-15 0)
(3 2.17041e-15 0)
(3 1.83084e-15 0)
(3 6.42113e-17 0)
(3 -5.90071e-17 0)
(3 -4.66863e-17 0)
(3 4.35856e-16 0)
(3 1.50891e-16 0)
(3 3.16611e-16 0)
(3 3.42379e-16 0)
(3 8.00166e-16 0)
(3 1.5188e-15 0)
(3 2.23688e-15 0)
(3 1.76245e-15 0)
(3 3.27318e-16 0)
(3 1.3419e-16 0)
(3 1.27357e-15 0)
(3 1.84465e-15 0)
(3 1.61554e-15 0)
(3 1.56367e-15 0)
(3 1.41565e-15 0)
(3 2.06382e-15 0)
(3 1.21487e-15 0)
(3 1.41967e-16 0)
(3 1.54605e-16 0)
(3 1.10474e-15 0)
(3 2.33975e-15 0)
(3 2.65133e-15 0)
(3 1.83037e-15 0)
(3 -6.59593e-16 0)
(3 -1.09766e-15 0)
(3 -1.16276e-15 0)
(3 -9.66119e-16 0)
(3 -1.36759e-15 0)
(3 -1.14653e-15 0)
(3 -6.52209e-16 0)
(3 -2.14401e-15 0)
(2.38644 0.103649 0)
(0.70226 0.163862 0)
(0.505374 0.132013 0)
(0.507248 0.137828 0)
(0.496168 0.15059 0)
(0.489158 0.157131 0)
(0.479768 0.159329 0)
(0.464954 0.160564 0)
(0.444569 0.15979 0)
(0.413207 0.15761 0)
(0.373965 0.154794 0)
(0.340479 0.154973 0)
(0.324352 0.161313 0)
(0.315611 0.170078 0)
(0.309307 0.180096 0)
(0.298014 0.187012 0)
(0.280348 0.186261 0)
(0.249979 0.178768 0)
(0.205932 0.161634 0)
(0.166251 0.14541 0)
(0.151377 0.135375 0)
(0.14412 0.131909 0)
(0.140107 0.133932 0)
(0.128593 0.136654 0)
(0.113952 0.138682 0)
(0.0856789 0.137768 0)
(0.0541763 0.136556 0)
(0.0355937 0.138478 0)
(0.0177427 0.139142 0)
(0.0127976 0.145279 0)
(3 -7.68325e-17 0)
(3 -4.19036e-16 0)
(3 -1.46187e-16 0)
(3 -3.0837e-16 0)
(3 -1.71525e-16 0)
(3 3.86533e-16 0)
(3 8.62867e-16 0)
(3 4.73829e-16 0)
(3 7.21288e-16 0)
(3 4.22046e-16 0)
(3 2.89687e-16 0)
(3 6.2568e-16 0)
(3 5.26024e-16 0)
(3 -4.42944e-16 0)
(3 -1.06805e-15 0)
(3 -1.45174e-16 0)
(3 4.50775e-16 0)
(3 5.70515e-16 0)
(3 5.14445e-16 0)
(3 1.01505e-15 0)
(3 1.34692e-15 0)
(3 9.66657e-16 0)
(3 -1.42509e-16 0)
(3 -1.13593e-15 0)
(3 -1.69875e-15 0)
(3 -1.34979e-15 0)
(3 -3.38525e-17 0)
(3 2.09362e-16 0)
(3 8.58107e-16 0)
(3 1.96614e-15 0)
(3 1.90805e-15 0)
(3 1.50846e-15 0)
(3 5.26843e-16 0)
(3 -6.01361e-16 0)
(3 -2.93904e-16 0)
(3 1.35217e-15 0)
(3 2.42407e-15 0)
(3 2.53844e-15 0)
(3 3.05803e-15 0)
(3 3.3619e-15 0)
(3 3.29367e-15 0)
(3 3.25264e-15 0)
(3 3.17515e-15 0)
(3 2.14962e-15 0)
(3 1.47737e-15 0)
(3 1.53525e-15 0)
(3 2.51072e-15 0)
(3 2.26372e-15 0)
(3 2.40148e-15 0)
(3 2.85759e-15 0)
(3 1.80909e-15 0)
(3 8.14015e-16 0)
(3 1.1126e-15 0)
(3 -9.57613e-16 0)
(3 -1.23571e-15 0)
(3 -9.84934e-16 0)
(3 -6.05841e-16 0)
(3 -5.01323e-16 0)
(3 -1.63122e-15 0)
(3 -1.99031e-15 0)
(3 -1.31441e-15 0)
(3 -4.73355e-16 0)
(3 -2.71467e-16 0)
(3 -9.54799e-16 0)
(3 -8.40204e-16 0)
(3 -3.03976e-15 0)
(2.55356 0.0977203 0)
(0.739066 0.178713 0)
(0.514798 0.147876 0)
(0.517972 0.161111 0)
(0.505888 0.175455 0)
(0.496136 0.178798 0)
(0.483941 0.18023 0)
(0.467449 0.180986 0)
(0.444718 0.179709 0)
(0.411402 0.176768 0)
(0.372813 0.173913 0)
(0.343837 0.175758 0)
(0.331765 0.183561 0)
(0.323418 0.193228 0)
(0.3165 0.204148 0)
(0.304065 0.212085 0)
(0.284468 0.211896 0)
(0.251094 0.204017 0)
(0.206009 0.185205 0)
(0.16889 0.16738 0)
(0.156194 0.155866 0)
(0.149734 0.15112 0)
(0.144176 0.152764 0)
(0.130837 0.155458 0)
(0.113505 0.15745 0)
(0.0832781 0.156169 0)
(0.0541249 0.155205 0)
(0.0379723 0.157774 0)
(0.0211331 0.159026 0)
(0.0137854 0.165365 0)
(3 2.50949e-16 0)
(3 -3.17522e-17 0)
(3 -8.4562e-16 0)
(3 -9.5843e-16 0)
(3 -6.84353e-16 0)
(3 5.98639e-17 0)
(3 8.57905e-17 0)
(3 5.3004e-16 0)
(3 -1.17087e-16 0)
(3 -3.37899e-16 0)
(3 -1.07432e-15 0)
(3 -8.75532e-16 0)
(3 -4.89947e-16 0)
(3 -2.01703e-16 0)
(3 -2.16071e-16 0)
(3 -5.18434e-16 0)
(3 -6.7578e-16 0)
(3 -1.26899e-15 0)
(3 -1.22889e-15 0)
(3 -8.44665e-16 0)
(3 -4.4348e-16 0)
(3 -2.04432e-16 0)
(3 -6.36842e-16 0)
(3 -9.94031e-16 0)
(3 -8.47798e-16 0)
(3 8.18063e-17 0)
(3 1.12673e-15 0)
(3 1.21021e-15 0)
(3 1.81172e-15 0)
(3 2.11985e-15 0)
(3 2.82298e-15 0)
(3 1.65069e-15 0)
(3 7.43593e-16 0)
(3 -6.61679e-16 0)
(3 -1.17729e-16 0)
(3 1.00677e-15 0)
(3 2.8052e-15 0)
(3 4.008e-15 0)
(3 4.47533e-15 0)
(3 4.15648e-15 0)
(3 3.69675e-15 0)
(3 2.92465e-15 0)
(3 3.27713e-15 0)
(3 1.491e-15 0)
(3 1.12911e-15 0)
(3 2.08919e-15 0)
(3 2.80084e-15 0)
(3 2.86933e-15 0)
(3 2.46079e-15 0)
(3 1.52521e-15 0)
(3 5.57385e-16 0)
(3 4.56349e-16 0)
(3 7.38583e-16 0)
(3 7.69867e-16 0)
(3 2.01154e-16 0)
(3 -2.7826e-15 0)
(3 -3.79441e-15 0)
(3 -3.34402e-15 0)
(3 -2.79809e-15 0)
(3 -2.74398e-15 0)
(3 -1.30974e-15 0)
(3 -1.12059e-15 0)
(3 -5.26764e-16 0)
(3 -1.06594e-15 0)
(3 -1.53225e-15 0)
(3 -3.57507e-15 0)
(2.71895 0.0810466 0)
(0.794202 0.190115 0)
(0.530003 0.164306 0)
(0.529423 0.190654 0)
(0.514641 0.199449 0)
(0.502471 0.199866 0)
(0.488023 0.200732 0)
(0.469883 0.201094 0)
(0.444501 0.199056 0)
(0.409542 0.195306 0)
(0.372919 0.193004 0)
(0.349719 0.197151 0)
(0.340343 0.206036 0)
(0.33202 0.21653 0)
(0.323967 0.228183 0)
(0.310101 0.237061 0)
(0.288275 0.23743 0)
(0.252071 0.228833 0)
(0.206576 0.208869 0)
(0.172857 0.190093 0)
(0.162097 0.177288 0)
(0.156318 0.171058 0)
(0.148505 0.171944 0)
(0.133349 0.174435 0)
(0.11275 0.176381 0)
(0.0807594 0.174773 0)
(0.0543827 0.174367 0)
(0.0408348 0.177554 0)
(0.0249675 0.179362 0)
(0.0148165 0.185772 0)
(3 3.75259e-16 0)
(3 7.50696e-16 0)
(3 2.78478e-16 0)
(3 -2.22088e-16 0)
(3 1.1636e-16 0)
(3 -7.60121e-17 0)
(3 -2.515e-16 0)
(3 -3.5116e-16 0)
(3 -4.95836e-16 0)
(3 -4.93181e-16 0)
(3 -3.60021e-16 0)
(3 -4.26242e-16 0)
(3 -7.09751e-16 0)
(3 -1.86822e-16 0)
(3 -2.69302e-16 0)
(3 -3.30313e-16 0)
(3 -6.18039e-16 0)
(3 -1.08184e-15 0)
(3 -9.15491e-16 0)
(3 -6.13218e-16 0)
(3 3.44798e-16 0)
(3 -1.93834e-16 0)
(3 -1.81593e-16 0)
(3 5.60954e-16 0)
(3 1.24065e-15 0)
(3 1.80807e-15 0)
(3 1.73697e-15 0)
(3 1.71443e-15 0)
(3 1.20108e-15 0)
(3 7.62171e-16 0)
(3 3.69941e-16 0)
(3 3.40377e-16 0)
(3 4.92349e-16 0)
(3 6.86697e-16 0)
(3 -7.29943e-17 0)
(3 5.23971e-16 0)
(3 2.12904e-15 0)
(3 2.80031e-15 0)
(3 2.63637e-15 0)
(3 2.54736e-15 0)
(3 2.89043e-15 0)
(3 2.36606e-15 0)
(3 1.54463e-15 0)
(3 1.44572e-18 0)
(3 -6.20981e-17 0)
(3 1.8923e-15 0)
(3 1.89447e-15 0)
(3 2.42977e-15 0)
(3 3.79009e-16 0)
(3 -3.56509e-16 0)
(3 3.99239e-16 0)
(3 2.50829e-16 0)
(3 -2.47802e-16 0)
(3 4.16685e-16 0)
(3 -1.00835e-15 0)
(3 -1.97074e-15 0)
(3 -4.16322e-15 0)
(3 -3.94175e-15 0)
(3 -1.792e-15 0)
(3 -1.95349e-15 0)
(3 -2.01983e-15 0)
(3 -1.59738e-15 0)
(3 -1.77249e-15 0)
(3 -2.56742e-15 0)
(3 -3.32631e-15 0)
(3 -3.44649e-15 0)
(2.85877 0.0537563 0)
(0.874085 0.202312 0)
(0.551186 0.188567 0)
(0.538075 0.220188 0)
(0.522411 0.220355 0)
(0.508061 0.220129 0)
(0.492515 0.220831 0)
(0.472133 0.220817 0)
(0.443603 0.21763 0)
(0.40801 0.213306 0)
(0.375469 0.212513 0)
(0.358176 0.219286 0)
(0.350059 0.228892 0)
(0.341362 0.240067 0)
(0.331855 0.252228 0)
(0.316272 0.26185 0)
(0.29186 0.262743 0)
(0.253233 0.253053 0)
(0.207926 0.232784 0)
(0.178096 0.213675 0)
(0.169102 0.199812 0)
(0.163478 0.191973 0)
(0.153111 0.191625 0)
(0.135745 0.193723 0)
(0.111537 0.195533 0)
(0.0781632 0.193677 0)
(0.0550344 0.194168 0)
(0.0440453 0.197865 0)
(0.0290691 0.200108 0)
(0.0158401 0.206475 0)
(3 1.37757e-16 0)
(3 3.75479e-16 0)
(3 1.33452e-16 0)
(3 8.43266e-17 0)
(3 2.93231e-16 0)
(3 2.41426e-17 0)
(3 -5.79923e-16 0)
(3 -6.79966e-16 0)
(3 -5.31708e-16 0)
(3 -2.37121e-17 0)
(3 8.2087e-16 0)
(3 8.33468e-16 0)
(3 5.2205e-16 0)
(3 4.56397e-16 0)
(3 7.27478e-16 0)
(3 5.73294e-16 0)
(3 4.42297e-16 0)
(3 6.13036e-16 0)
(3 3.01601e-16 0)
(3 1.6353e-16 0)
(3 4.71754e-16 0)
(3 1.0506e-15 0)
(3 1.8284e-15 0)
(3 2.38871e-15 0)
(3 2.37778e-15 0)
(3 1.50922e-15 0)
(3 3.45316e-16 0)
(3 5.21692e-16 0)
(3 4.92786e-17 0)
(3 -3.41673e-16 0)
(3 -5.65222e-16 0)
(3 -9.17715e-16 0)
(3 -8.00842e-17 0)
(3 4.20153e-16 0)
(3 2.08876e-16 0)
(3 7.09766e-16 0)
(3 1.92538e-15 0)
(3 2.12443e-15 0)
(3 1.59601e-15 0)
(3 1.97316e-15 0)
(3 2.39523e-15 0)
(3 2.44423e-15 0)
(3 2.13561e-15 0)
(3 1.5658e-15 0)
(3 3.20732e-16 0)
(3 6.46903e-18 0)
(3 1.84225e-15 0)
(3 2.36182e-15 0)
(3 -3.31769e-16 0)
(3 -9.12786e-16 0)
(3 -3.61602e-16 0)
(3 1.40692e-16 0)
(3 2.73446e-16 0)
(3 -6.17785e-16 0)
(3 -2.12767e-15 0)
(3 -1.8457e-15 0)
(3 -2.44396e-15 0)
(3 -2.54108e-15 0)
(3 -1.97039e-15 0)
(3 -3.9053e-16 0)
(3 -4.58863e-16 0)
(3 -3.96169e-16 0)
(3 -1.00464e-15 0)
(3 -1.88453e-15 0)
(3 -1.49449e-15 0)
(3 -5.66008e-16 0)
(2.96347 0.0127466 0)
(0.980926 0.22537 0)
(0.57167 0.218246 0)
(0.543627 0.243532 0)
(0.529838 0.23906 0)
(0.513776 0.240022 0)
(0.497141 0.240808 0)
(0.473605 0.239842 0)
(0.442109 0.235205 0)
(0.407561 0.231138 0)
(0.381562 0.23316 0)
(0.368781 0.242021 0)
(0.360624 0.252187 0)
(0.351246 0.26379 0)
(0.340042 0.276177 0)
(0.322476 0.286169 0)
(0.295205 0.287439 0)
(0.2546 0.276926 0)
(0.210386 0.257278 0)
(0.184887 0.238256 0)
(0.177134 0.223557 0)
(0.171064 0.21405 0)
(0.158117 0.211897 0)
(0.13815 0.213413 0)
(0.110064 0.21495 0)
(0.0759551 0.212994 0)
(0.0564744 0.214692 0)
(0.0477047 0.218752 0)
(0.0334271 0.221244 0)
(0.0168617 0.227506 0)
(3 1.82885e-17 0)
(3 -6.51767e-17 0)
(3 -1.78168e-16 0)
(3 -2.9214e-16 0)
(3 -6.74368e-16 0)
(3 -8.43943e-16 0)
(3 -1.16361e-15 0)
(3 -1.48605e-15 0)
(3 -1.47259e-15 0)
(3 -1.46608e-15 0)
(3 -8.99326e-16 0)
(3 4.70509e-16 0)
(3 1.52235e-15 0)
(3 1.41943e-15 0)
(3 9.64171e-16 0)
(3 1.21268e-15 0)
(3 2.22366e-15 0)
(3 2.14146e-15 0)
(3 2.45173e-15 0)
(3 2.09278e-15 0)
(3 1.1745e-15 0)
(3 2.17089e-15 0)
(3 2.99469e-15 0)
(3 2.66263e-15 0)
(3 2.18017e-15 0)
(3 1.0061e-15 0)
(3 2.30065e-16 0)
(3 -3.19326e-17 0)
(3 4.77951e-16 0)
(3 6.91681e-16 0)
(3 3.94898e-17 0)
(3 -5.93849e-16 0)
(3 -8.96653e-16 0)
(3 -5.992e-16 0)
(3 4.10776e-16 0)
(3 -5.01864e-17 0)
(3 -9.13423e-16 0)
(3 -8.48861e-16 0)
(3 -7.63339e-17 0)
(3 1.41406e-16 0)
(3 5.02574e-16 0)
(3 8.56104e-16 0)
(3 2.08307e-15 0)
(3 2.76993e-15 0)
(3 2.38264e-15 0)
(3 1.47802e-15 0)
(3 2.21963e-15 0)
(3 1.96567e-15 0)
(3 1.36824e-15 0)
(3 -4.48452e-16 0)
(3 -1.10323e-15 0)
(3 -3.09432e-16 0)
(3 -2.84681e-16 0)
(3 -1.65903e-15 0)
(3 -1.40645e-15 0)
(3 -1.73731e-15 0)
(3 -1.54144e-15 0)
(3 -1.73546e-15 0)
(3 -1.23719e-15 0)
(3 -1.04002e-15 0)
(3 -6.60182e-16 0)
(3 -2.27754e-16 0)
(3 -7.74152e-16 0)
(3 -8.14746e-16 0)
(3 -8.93352e-16 0)
(3 4.93261e-16 0)
(2.99986 0.00026084 0)
(1.11458 0.254741 0)
(0.584386 0.247914 0)
(0.548822 0.263584 0)
(0.537686 0.257106 0)
(0.519491 0.259946 0)
(0.500855 0.260306 0)
(0.473598 0.25749 0)
(0.440673 0.251751 0)
(0.409795 0.249547 0)
(0.391019 0.255023 0)
(0.381073 0.265317 0)
(0.371731 0.275882 0)
(0.361333 0.287559 0)
(0.348302 0.299898 0)
(0.32843 0.309996 0)
(0.29808 0.311328 0)
(0.256228 0.300752 0)
(0.214623 0.282551 0)
(0.193572 0.263933 0)
(0.186189 0.248592 0)
(0.17911 0.237271 0)
(0.163823 0.232939 0)
(0.140705 0.233535 0)
(0.108608 0.234659 0)
(0.0745806 0.232858 0)
(0.0588846 0.235963 0)
(0.0517584 0.240294 0)
(0.0379332 0.242874 0)
(0.0178379 0.248996 0)
(3 -1.7718e-16 0)
(3 -4.17723e-16 0)
(3 -2.50952e-16 0)
(3 -2.49998e-16 0)
(3 -8.91012e-16 0)
(3 -3.16313e-16 0)
(3 -2.97641e-16 0)
(3 3.57694e-16 0)
(3 -4.79822e-18 0)
(3 -4.47351e-16 0)
(3 -1.42359e-15 0)
(3 -7.38192e-16 0)
(3 -5.45031e-17 0)
(3 1.05959e-15 0)
(3 1.33886e-15 0)
(3 1.40449e-15 0)
(3 1.73314e-15 0)
(3 1.90833e-15 0)
(3 2.63947e-15 0)
(3 2.46434e-15 0)
(3 1.76336e-15 0)
(3 1.70125e-15 0)
(3 2.21695e-15 0)
(3 2.52305e-15 0)
(3 2.43896e-15 0)
(3 1.98625e-15 0)
(3 1.26491e-15 0)
(3 2.66654e-16 0)
(3 3.4209e-16 0)
(3 3.04151e-16 0)
(3 -3.44891e-16 0)
(3 -2.15055e-16 0)
(3 -3.55861e-16 0)
(3 4.27162e-16 0)
(3 8.07539e-16 0)
(3 -2.79676e-16 0)
(3 -1.65428e-15 0)
(3 -1.80588e-15 0)
(3 -9.41405e-16 0)
(3 -6.76759e-16 0)
(3 8.96189e-16 0)
(3 1.73955e-15 0)
(3 2.04993e-15 0)
(3 2.85251e-15 0)
(3 2.85195e-15 0)
(3 1.34427e-15 0)
(3 5.53954e-16 0)
(3 6.03376e-16 0)
(3 1.12372e-15 0)
(3 2.42613e-17 0)
(3 -4.51421e-16 0)
(3 -1.10367e-15 0)
(3 -1.37013e-15 0)
(3 -2.96677e-15 0)
(3 -3.3898e-15 0)
(3 -2.56945e-15 0)
(3 -2.30404e-15 0)
(3 -1.38937e-15 0)
(3 -1.35902e-15 0)
(3 -2.04784e-15 0)
(3 -2.46679e-15 0)
(3 -2.67598e-15 0)
(3 -2.14902e-15 0)
(3 -1.57605e-15 0)
(3 -1.31684e-15 0)
(3 3.26134e-16 0)
(3 3.36445e-08 0)
(1.28722 0.281682 0)
(0.600819 0.276565 0)
(0.554341 0.283267 0)
(0.545972 0.275031 0)
(0.524687 0.27947 0)
(0.502721 0.278289 0)
(0.472076 0.273054 0)
(0.440755 0.26803 0)
(0.41652 0.269876 0)
(0.402897 0.278355 0)
(0.394048 0.289191 0)
(0.383099 0.299767 0)
(0.371397 0.311209 0)
(0.356306 0.323206 0)
(0.333812 0.333057 0)
(0.300442 0.334384 0)
(0.258677 0.324673 0)
(0.221276 0.308457 0)
(0.20405 0.290859 0)
(0.196047 0.275084 0)
(0.187398 0.261622 0)
(0.170179 0.254922 0)
(0.142975 0.254117 0)
(0.107107 0.254703 0)
(0.074085 0.253461 0)
(0.0620318 0.258024 0)
(0.0558933 0.262589 0)
(0.0423327 0.265117 0)
(0.0186607 0.271043 0)
(3 -8.16672e-17 0)
(3 -2.16315e-17 0)
(3 -3.70566e-16 0)
(3 -7.77266e-16 0)
(3 -6.85203e-16 0)
(3 -4.08702e-17 0)
(3 6.89712e-16 0)
(3 8.36283e-16 0)
(3 7.49061e-16 0)
(3 3.37908e-16 0)
(3 -1.64463e-16 0)
(3 -9.81629e-16 0)
(3 -1.42128e-15 0)
(3 -1.39232e-15 0)
(3 3.70504e-16 0)
(3 1.07596e-15 0)
(3 1.43765e-15 0)
(3 1.88527e-15 0)
(3 1.10204e-15 0)
(3 1.0767e-15 0)
(3 2.23499e-15 0)
(3 1.65105e-15 0)
(3 1.49614e-15 0)
(3 1.57717e-15 0)
(3 1.22086e-15 0)
(3 1.10431e-15 0)
(3 8.33695e-16 0)
(3 6.7526e-16 0)
(3 2.13665e-16 0)
(3 3.46821e-16 0)
(3 3.82661e-16 0)
(3 1.24191e-15 0)
(3 2.23051e-15 0)
(3 1.5313e-15 0)
(3 1.39428e-15 0)
(3 1.35873e-15 0)
(3 1.45191e-15 0)
(3 1.10516e-15 0)
(3 1.11322e-15 0)
(3 1.09997e-15 0)
(3 1.17893e-15 0)
(3 1.54795e-15 0)
(3 1.3708e-15 0)
(3 1.5472e-15 0)
(3 2.90242e-15 0)
(3 2.1198e-15 0)
(3 -5.40372e-16 0)
(3 1.18588e-16 0)
(3 4.51605e-16 0)
(3 -5.10453e-16 0)
(3 -4.44784e-16 0)
(3 -6.84498e-16 0)
(3 -1.70504e-15 0)
(3 -2.13892e-15 0)
(3 -2.80543e-15 0)
(3 -2.50549e-15 0)
(3 -1.63314e-15 0)
(3 -1.56565e-15 0)
(3 -1.86574e-15 0)
(3 -2.1834e-15 0)
(3 -3.20109e-15 0)
(3 -4.47866e-15 0)
(3 -4.02095e-15 0)
(3 -2.11478e-15 0)
(3 -1.19922e-15 0)
(3 -1.51427e-15 0)
(3 1.73994e-13 0)
(1.50934 0.306768 0)
(0.624546 0.307831 0)
(0.559868 0.303738 0)
(0.553689 0.292477 0)
(0.528332 0.297631 0)
(0.50154 0.293401 0)
(0.471055 0.287394 0)
(0.444617 0.28602 0)
(0.427302 0.292197 0)
(0.416287 0.302617 0)
(0.406588 0.313318 0)
(0.394528 0.323542 0)
(0.3812 0.334456 0)
(0.363767 0.346046 0)
(0.338338 0.355223 0)
(0.302636 0.356695 0)
(0.262826 0.348763 0)
(0.230756 0.335224 0)
(0.216121 0.319055 0)
(0.206547 0.303065 0)
(0.196426 0.287117 0)
(0.176844 0.277959 0)
(0.145081 0.275119 0)
(0.106115 0.275154 0)
(0.0749508 0.274969 0)
(0.0660122 0.280831 0)
(0.0602294 0.285693 0)
(0.0466165 0.288053 0)
(0.0193289 0.293744 0)
(3 1.96929e-16 0)
(3 3.18671e-16 0)
(3 1.4101e-16 0)
(3 -8.0039e-19 0)
(3 6.17889e-16 0)
(3 9.45773e-16 0)
(3 1.31796e-15 0)
(3 7.39433e-16 0)
(3 1.07894e-15 0)
(3 1.46188e-15 0)
(3 4.97435e-16 0)
(3 -3.50669e-16 0)
(3 -1.53013e-15 0)
(3 -2.94753e-15 0)
(3 -2.77192e-15 0)
(3 -1.38932e-15 0)
(3 4.71515e-16 0)
(3 7.42274e-16 0)
(3 5.82233e-16 0)
(3 4.45534e-16 0)
(3 4.60349e-16 0)
(3 4.99695e-16 0)
(3 9.56294e-16 0)
(3 6.11515e-16 0)
(3 3.08933e-16 0)
(3 4.38177e-16 0)
(3 3.56255e-16 0)
(3 9.02009e-16 0)
(3 4.10803e-16 0)
(3 -2.07506e-16 0)
(3 1.10647e-15 0)
(3 1.87457e-15 0)
(3 2.02597e-15 0)
(3 1.43597e-15 0)
(3 4.82034e-16 0)
(3 9.68658e-16 0)
(3 3.35355e-15 0)
(3 3.58648e-15 0)
(3 2.83288e-15 0)
(3 1.39481e-15 0)
(3 1.70399e-16 0)
(3 4.96486e-16 0)
(3 8.60972e-16 0)
(3 1.06204e-15 0)
(3 2.42597e-15 0)
(3 2.0174e-15 0)
(3 4.83328e-16 0)
(3 -4.41981e-16 0)
(3 -1.01657e-15 0)
(3 -4.15482e-16 0)
(3 1.03435e-15 0)
(3 7.0842e-16 0)
(3 7.83058e-17 0)
(3 7.59558e-16 0)
(3 6.48587e-16 0)
(3 5.54565e-16 0)
(3 3.47295e-16 0)
(3 -5.24363e-16 0)
(3 -1.33707e-15 0)
(3 -1.86698e-15 0)