/*--------------------------------*- C++ -*----------------------------------*\
  =========                 |
  \\      /  F ield         | OpenFOAM: The Open Source CFD Toolbox
   \\    /   O peration     | Website:  https://openfoam.org
    \\  /    A nd           | Version:  7
     \\/     M anipulation  |
\*---------------------------------------------------------------------------*/
FoamFile
{
    version     2.0;
    format      ascii;
    class       volScalarField;
    location    "2.7";
    object      p;
}
// * * * * * * * * * * * * * * * * * * * * * * * * * * * * * * * * * * * * * //

dimensions      [1 -1 -2 0 0 0 0];

internalField   nonuniform List<scalar> 
16128
(
1
1
1
1
1
1
1
1
1
1
1
1
1
1
1
1
1
1
1
1
1
1
1
1
3.62625
9.9395
10.5417
10.6336
10.7517
10.8574
10.9597
11.0563
11.1486
11.2375
11.3233
11.4055
11.4829
11.5558
11.6255
11.6903
11.7493
11.8036
11.853
11.8964
11.9327
11.9597
11.9777
11.9888
1
1
1
1
1
1
1
1
1
1
1
1
1
1
1
1
1
1
1
1
1
1
1
1
3.55702
9.88466
10.535
10.6322
10.7508
10.8561
10.9578
11.0538
11.1454
11.2334
11.3183
11.3998
11.4767
11.549
11.618
11.6818
11.7396
11.7926
11.8411
11.8839
11.9198
11.9466
11.9643
11.9756
1
1
1
1
1
1
1
1
1
1
1
1
1
1
1
1
1
1
1
1
1
1
1
1
3.39978
9.80546
10.5227
10.621
10.7407
10.8462
10.948
11.0439
11.1353
11.2228
11.3071
11.388
11.4647
11.537
11.6057
11.6689
11.7257
11.7774
11.8242
11.8653
11.8998
11.9255
11.9423
11.9532
1
1
1
1
1
1
1
1
1
1
1
1
1
1
1
1
1
1
1
1
1
1
1
1
3.17304
9.68525
10.5114
10.609
10.7281
10.8323
10.933
11.028
11.1186
11.2053
11.2887
11.3691
11.4455
11.5175
11.5857
11.6481
11.7039
11.7543
11.7996
11.839
11.8717
11.896
11.9111
11.9214
1
1
1
1
1
1
1
1
1
1
1
1
1
1
1
1
1
1
1
1
1
1
1
1
2.88607
9.50051
10.498
10.5925
10.712
10.8149
10.9149
11.009
11.0982
11.1833
11.2649
11.3435
11.4184
11.4894
11.5565
11.618
11.6727
11.7219
11.7658
11.8039
11.8354
11.8588
11.8728
11.883
1
1
1
1
1
1
1
1
1
1
1
1
1
1
1
1
1
1
1
1
1
1
1
1
2.54999
9.239
10.4856
10.5704
10.6879
10.7872
10.8845
10.9762
11.0638
11.1478
11.2288
11.3072
11.382
11.4524
11.5183
11.5784
11.6319
11.6797
11.7222
11.7587
11.7888
11.8111
11.824
11.8342
1
1
1
1
1
1
1
1
1
1
1
1
1
1
1
1
1
1
1
1
1
1
1
1
2.19268
8.89032
10.4817
10.5502
10.6652
10.7597
10.8547
10.9444
11.0303
11.1128
11.1919
11.2681
11.3401
11.4075
11.4703
11.5278
11.5794
11.6256
11.6666
11.7016
11.7305
11.7521
11.765
11.7759
1
1
1
1
1
1
1
1
1
1
1
1
1
1
1
1
1
1
1
1
1
1
1
1
1.82423
8.43492
10.4964
10.5273
10.6389
10.727
10.8191
10.9069
10.991
11.0714
11.1479
11.2212
11.2906
11.3552
11.4151
11.47
11.5193
11.5629
11.6011
11.6331
11.6594
11.6787
11.6906
11.7011
1
1
1
1
1
1
1
1
1
1
1
1
1
1
1
1
1
1
1
1
1
1
1
1
1.47035
7.86914
10.4966
10.4884
10.5983
10.6843
10.7757
10.8616
10.9432
11.0209
11.0951
11.1658
11.2323
11.2937
11.35
11.4011
11.4464
11.4858
11.5197
11.5479
11.5718
11.5894
11.6013
11.6122
1
1
1
1
1
1
1
1
1
1
1
1
1
1
1
1
1
1
1
1
1
1
1
1
1.15463
7.20587
10.4598
10.4517
10.5519
10.6319
10.7187
10.8021
10.8832
10.96
11.0316
11.0988
11.1621
11.2204
11.2732
11.3204
11.3617
11.3968
11.4262
11.45
11.4683
11.4795
11.4872
11.4946
1
1
1
1
1
1
1
1
1
1
1
1
1
1
1
1
1
1
1
1
1
1
1
1
1.00616
6.38966
10.2963
10.3733
10.4785
10.5686
10.6576
10.7375
10.8127
10.8843
10.9544
11.0202
11.0807
11.1353
11.184
11.2264
11.2621
11.2902
11.3109
11.3256
11.3355
11.3425
11.3474
11.3559
1
1
1
1
1
1
1
1
1
1
1
1
1
1
1
1
1
1
1
1
1
1
1
1
1.00003
5.45497
10.1046
10.2974
10.4063
10.502
10.5888
10.6674
10.7411
10.8104
10.8725
10.9296
10.9849
11.0351
11.0789
11.1154
11.1444
11.1645
11.1776
11.185
11.1852
11.1794
11.1684
11.1611
1
1
1
1
1
1
1
1
1
1
1
1
1
1
1
1
1
1
1
1
1
1
1
1
1
4.44852
9.81342
10.2322
10.3525
10.4492
10.5301
10.5985
10.6594
10.7163
10.7713
10.8247
10.8728
10.9162
10.9539
10.9836
11.0048
11.0158
11.0161
11.0026
10.9789
10.9542
10.9283
10.9279
1
1
1
1
1
1
1
1
1
1
1
1
1
1
1
1
1
1
1
1
1
1
1
1
1
3.43678
9.38509
10.1928
10.2994
10.398
10.4746
10.5378
10.5907
10.6373
10.6797
10.7183
10.7549
10.7883
10.8157
10.8349
10.8446
10.8406
10.8217
10.7904
10.7484
10.7042
10.6358
10.5563
1
1
1
1
1
1
1
1
1
1
1
1
1
1
1
1
1
1
1
1
1
1
1
1
1
2.40451
8.66943
10.225
10.2799
10.3534
10.4108
10.465
10.5124
10.5529
10.587
10.6156
10.6378
10.6552
10.6684
10.6723
10.6647
10.6415
10.6004
10.5373
10.4402
10.3019
10.1561
10.0469
1
1
1
1
1
1
1
1
1
1
1
1
1
1
1
1
1
1
1
1
1
1
1
1
1
1.47404
7.91994
10.3477
10.1984
10.262
10.3287
10.3858
10.4303
10.4653
10.4906
10.5088
10.5195
10.5235
10.518
10.5031
10.4725
10.423
10.3459
10.2321
10.074
9.87267
9.65592
9.56626
1
1
1
1
1
1
1
1
1
1
1
1
1
1
1
1
1
1
1
1
1
1
1
1
1
1.02824
6.76552
10.1267
10.0812
10.1671
10.2313
10.2914
10.3337
10.3651
10.3844
10.3943
10.3941
10.3825
10.3595
10.3235
10.2678
10.188
10.0723
9.91126
9.6707
9.28347
8.41804
6.4861
1
1
1
1
1
1
1
1
1
1
1
1
1
1
1
1
1
1
1
1
1
1
1
1
1
1.00005
5.23257
9.73082
9.96416
10.0783
10.1383
10.1867
10.2251
10.2551
10.2699
10.273
10.2629
10.2382
10.1972
10.1389
10.0571
9.94413
9.78614
9.55914
9.21207
8.61089
7.66976
5.49475
1
1
1
1
1
1
1
1
1
1
1
1
1
1
1
1
1
1
1
1
1
1
1
1
1
0.999999
3.77574
9.27534
9.93325
10.0217
10.0865
10.1067
10.1228
10.1399
10.1452
10.1418
10.1234
10.0882
10.031
9.95044
9.84232
9.69559
9.49644
9.21049
8.78687
8.13147
7.03075
5.15523
1
1
1
1
1
1
1
1
1
1
1
1
1
1
1
1
1
1
1
1
1
1
1
1
1
1
2.326
8.47115
9.95135
9.95657
9.99816
10.0161
10.0317
10.0393
10.0331
10.0178
9.98557
9.93624
9.86239
9.76129
9.62766
9.45127
9.2131
8.88914
8.40858
7.74368
6.61637
5.13424
1
1
1
1
1
1
1
1
1
1
1
1
1
1
1
1
1
1
1
1
1
1
1
1
1
1
1.18618
7.3628
10.0596
9.95626
9.91648
9.92316
9.92882
9.92675
9.90906
9.88398
9.84117
9.78074
9.69422
9.57668
9.42071
9.21983
8.95212
8.60145
8.10477
7.44655
6.39892
5.22991
1
1
1
1
1
1
1
1
1
1
1
1
1
1
1
1
1
1
1
1
1
1
1
1
1
1
1.00346
5.76618
9.54824
9.69056
9.74731
9.78622
9.80413
9.80366
9.78017
9.7481
9.69579
9.62356
9.52422
9.39285
9.22005
9.00104
8.7166
8.34915
7.86176
7.22309
6.30509
5.35168
1
1
1
1
1
1
1
1
1
1
1
1
1
1
1
1
1
1
1
1
1
1
1
1
1
1
0.999958
3.86909
9.10914
9.63654
9.68493
9.70845
9.71354
9.70054
9.66815
9.62407
9.56141
9.47829
9.36643
9.22263
9.03692
8.8039
8.50909
8.13539
7.66647
7.06195
6.27613
5.46864
1
1
1
1
1
1
1
1
1
1
1
1
1
1
1
1
1
1
1
1
1
1
1
1
1
1
0.99999
2.10403
8.31194
9.64358
9.61565
9.63151
9.62314
9.59758
9.55525
9.49927
9.42557
9.33281
9.21098
9.05757
8.86327
8.62328
8.32628
7.95544
7.50347
6.94398
6.27008
5.56568
1
1
1
1
1
1
1
1
1
1
1
1
1
1
1
1
1
1
1
1
1
1
1
1
1
1
0.999998
1.11676
6.78209
9.61973
9.53161
9.51631
9.51311
9.48823
9.44431
9.3823
9.29951
9.19761
9.06818
8.90836
8.70865
8.46375
8.16901
7.80654
7.3685
6.85573
6.27273
5.6493
1
1
1
1
1
1
1
1
1
1
1
1
1
1
1
1
1
1
1
1
1
1
1
1
1
1
1
1.00097
4.71261
9.07181
9.37349
9.42294
9.41175
9.38335
9.33581
9.26856
9.17799
9.06733
8.93117
8.76491
8.56411
8.32023
8.03022
7.68011
7.25947
6.79307
6.2779
5.721
1
1
1
1
1
1
1
1
1
1
1
1
1
1
1
1
1
1
1
1
1
1
1
1
1
1
1
0.999991
2.49918
8.3796
9.38067
9.34827
9.34037
9.30365
9.24419
9.16675
9.06704
8.94803
8.80472
8.6339
8.4319
8.19167
7.90617
7.56959
7.1744
6.75152
6.2811
5.78659
1
1
1
1
1
1
1
1
1
1
1
1
1
1
1
1
1
1
1
1
1
1
1
1
1
1
1
0.999998
1.18592
6.86866
9.39438
9.2889
9.2486
9.20462
9.13946
9.05777
8.95626
8.83402
8.6876
8.51409
8.31179
8.07512
7.79732
7.47295
7.10594
6.71872
6.28417
5.84313
1
1
1
1
1
1
1
1
1
1
1
1
1
1
1
1
1
1
1
1
1
1
1
1
1
1
1
1
1.00269
4.63445
8.85218
9.13199
9.15805
9.11055
9.0405
8.95775
8.85318
8.72805
8.57741
8.40272
8.20083
7.96757
7.69942
7.3884
7.04928
6.69132
6.29253
5.8947
1
1
1
1
1
1
1
1
1
1
1
1
1
1
1
1
1
1
1
1
1
1
1
1
1
1
1
1
0.99998
2.21318
8.13702
9.16533
9.08331
9.01659
8.95204
8.86832
8.76087
8.63251
8.48042
8.30076
8.10281
7.87114
7.6108
7.31572
7.00117
6.66462
6.29972
5.93428
1
1
1
1
1
1
1
1
1
1
1
1
1
1
1
1
1
1
1
1
1
1
1
1
1
1
1
1
0.999995
1.11901
6.38414
8.98636
8.95366
8.91106
8.85485
8.77752
8.66815
8.53581
8.38125
8.20452
8.00353
7.7814
7.53312
7.25597
6.96257
6.64438
6.30861
5.96581
1
1
1
1
1
1
1
1
1
1
1
1
1
1
1
1
1
1
1
1
1
1
1
1
1
1
1
1
0.999999
1.00089
3.66475
8.40119
8.86232
8.84238
8.79894
8.71525
8.59616
8.45706
8.29929
8.12096
7.92085
7.70214
7.46296
7.20232
6.92633
6.62629
6.31395
5.98955
1
1
1
1
1
1
1
1
1
1
1
1
1
1
1
1
1
1
1
1
1
1
1
1
1
1
1
1
1
0.999995
1.45154
7.29983
8.99641
8.84121
8.74222
8.63564
8.50274
8.36218
8.20748
8.03459
7.84259
7.63183
7.40197
7.15669
6.89473
6.61153
6.31926
6.01287
1
1
1
1
1
1
1
1
1
1
1
1
1
1
1
1
1
1
1
1
1
1
1
1
1
1
1
1
1
0.999999
1.01736
5.04053
8.54475
8.66279
8.6319
8.53279
8.4105
8.27847
8.12938
7.96145
7.77522
7.57161
7.35037
7.11595
6.86434
6.59664
6.32133
6.03449
1
1
1
1
1
1
1
1
1
1
1
1
1
1
1
1
1
1
1
1
1
1
1
1
1
1
1
1
1
1
0.99996
2.1979
7.83667
8.75127
8.59929
8.45357
8.33307
8.20827
8.06402
7.90062
7.72009
7.52332
7.31005
7.0819
6.83874
6.58568
6.32549
6.05737
1
1
1
1
1
1
1
1
1
1
1
1
1
1
1
1
1
1
1
1
1
1
1
1
1
1
1
1
1
1
0.999989
1.10804
5.99806
8.57153
8.41973
8.32991
8.23708
8.12499
7.99042
7.83479
7.66202
7.4731
7.26822
7.04843
6.81639
6.57573
6.32936
6.07652
1
1
1
1
1
1
1
1
1
1
1
1
1
1
1
1
1
1
1
1
1
1
1
1
1
1
1
1
1
1
0.999998
1.00074
3.02453
7.86872
8.3188
8.27957
8.20058
8.08837
7.95322
7.79833
7.6275
7.44041
7.23837
7.0246
6.80163
6.57049
6.33509
6.09365
1
1
1
1
1
1
1
1
1
1
1
1
1
1
1
1
1
1
1
1
1
1
1
1
1
1
1
1
1
1
1
0.999998
1.27058
6.24229
8.37112
8.28236
8.17172
8.04113
7.89996
7.74598
7.57978
7.39935
7.20499
6.99905
6.78477
6.56328
6.33753
6.10648
1
1
1
1
1
1
1
1
1
1
1
1
1
1
1
1
1
1
1
1
1
1
1
1
1
1
1
1
1
1
1
1
1.00569
3.34753
7.73864
8.17044
8.08439
7.97206
7.844
7.69988
7.5404
7.36699
7.18109
6.98293
6.7758
6.56123
6.34227
6.11985
1
1
1
1
1
1
1
1
1
1
1
1
1
1
1
1
1
1
1
1
1
1
1
1
1
1
1
1
1
1
1
1
1.00001
1.36064
6.23824
8.20566
8.07572
7.95373
7.81938
7.66961
7.50754
7.33437
7.15258
6.96145
6.7623
6.55593
6.34489
6.13152
1
1
1
1
1
1
1
1
1
1
1
1
1
1
1
1
1
1
1
1
1
1
1
1
1
1
1
1
1
1
1
1
1
1.01022
3.37821
7.58654
7.97601
7.89099
7.76917
7.62321
7.46528
7.29716
7.12277
6.94024
6.74995
6.55286
6.35024
6.14429
1
1
1
1
1
1
1
1
1
1
1
1
1
1
1
1
1
1
1
1
1
1
1
1
1
1
1
1
1
1
1
1
1
1.00003
1.3732
6.01554
7.97876
7.88284
7.75043
7.59893
7.44185
7.27658
7.10432
6.9247
6.73947
6.55001
6.35635
6.15873
1
1
1
1
1
1
1
1
1
1
1
1
1
1
1
1
1
1
1
1
1
1
1
1
1
1
1
1
1
1
1
1
1
1
1.01101
3.0344
7.31807
7.82638
7.69076
7.54892
7.39932
7.24094
7.07418
6.90212
6.72666
6.54754
6.36441
6.17734
1
1
1
1
1
1
1
1
1
1
1
1
1
1
1
1
1
1
1
1
1
1
1
1
1
1
1
1
1
1
1
1
1
1
1.00004
1.28234
5.61669
7.8376
7.66742
7.53019
7.38362
7.22803
7.06486
6.89859
6.72995
6.55696
6.37924
6.19836
1
1
1
1
1
1
1
1
1
1
1
1
1
1
1
1
1
1
1
1
1
1
1
1
1
1
1
1
1
1
1
1
1
1
1
1.00653
2.5593
6.96682
7.60471
7.48364
7.35117
7.19812
7.04209
6.88356
6.72228
6.55707
6.38629
6.21004
1
1
1
1
1
1
1
1
1
1
1
1
1
1
1
1
1
1
1
1
1
1
1
1
1
1
1
1
1
1
1
1
1
1
1
1.00003
1.16759
4.8962
7.56982
7.49168
7.35423
7.19178
7.0427
6.89165
6.73522
6.57317
6.4053
6.231
1
1
1
1
1
1
1
1
1
1
1
1
1
1
1
1
1
1
1
1
1
1
1
1
1
1
1
1
1
1
1
1
1
1
1
1
1.00265
2.03995
6.4308
7.46452
7.29416
7.16466
7.02597
6.88111
6.72895
6.56998
6.40653
6.23946
1
1
1
1
1
1
1
1
1
1
1
1
1
1
1
1
1
1
1
1
1
1
1
1
1
1
1
1
1
1
1
1
1
1
1
1
1.00001
1.07738
3.81218
7.14615
7.29604
7.1714
7.03912
6.89691
6.74553
6.58755
6.42609
6.26268
1
1
1
1
1
1
1
1
1
1
1
1
1
1
1
1
1
1
1
1
1
1
1
1
1
1
1
1
1
1
1
1
1
1
1
1
1
1.00089
1.53013
5.58658
7.34096
7.17866
7.03843
6.89468
6.74666
6.59367
6.43719
6.27842
1
1
1
1
1
1
1
1
1
1
1
1
1
1
1
1
1
1
1
1
1
1
1
1
1
1
1
1
1
1
1
1
1
1
1
1
1
1
1.02228
2.68512
6.57035
7.15313
7.02328
6.89091
6.74963
6.6016
6.44783
6.291
1
1
1
1
1
1
1
1
1
1
1
1
1
1
1
1
1
1
1
1
1
1
1
1
1
1
1
1
1
1
1
1
1
1
1
1
1
1
1.00018
1.19448
4.38919
7.01633
7.05319
6.92028
6.77512
6.6247
6.47099
6.31507
1
1
1
1
1
1
1
1
1
1
1
1
1
1
1
1
1
1
1
1
1
1
1
1
1
1
1
1
1
1
1
1
1
1
1
1
1
1
1
1.00399
1.80787
5.70757
7.04046
6.91235
6.76618
6.61939
6.47206
6.32526
1
1
1
1
1
1
1
1
1
1
1
1
1
1
1
1
1
1
1
1
1
1
1
1
1
1
1
1
1
1
1
1
1
1
1
1
1
1
1
1.00002
1.049
2.947
6.44968
6.90806
6.77173
6.62955
6.49073
6.34981
1
1
1
1
1
1
1
1
1
1
1
1
1
1
1
1
1
1
1
1
1
1
1
1
1
1
1
1
1
1
1
1
1
1
1
1
1
1
1
1
1.00057
1.26012
4.39801
6.74269
6.80126
6.66489
6.52356
6.38114
1
1
1
1
1
1
1
1
1
1
1
1
1
1
1
1
1
1
1
1
1
1
1
1
1
1
1
1
1
1
1
1
1
1
1
1
1
1
1
1
1
1.00685
1.83754
5.46572
6.76472
6.67695
6.53558
6.39451
1
1
1
1
1
1
1
1
1
1
1
1
1
1
1
1
1
1
1
1
1
1
1
1
1
1
1
1
1
1
1
1
1
1
1
1
1
1
1
1
1
1.00004
1.05312
2.77664
6.12912
6.67451
6.55769
6.41145
1
1
1
1
1
1
1
1
1
1
1
1
1
1
1
1
1
1
1
1
1
1
1
1
1
1
1
1
1
1
1
1
1
1
1
1
1
1
1
1
1
1
1.00068
1.22206
3.94961
6.39911
6.58662
6.45172
1
1
1
1
1
1
1
1
1
1
1
1
1
1
1
1
1
1
1
1
1
1
1
1
1
1
1
1
1
1
1
1
1
1
1
1
1
1
1
1
1
1
1
1.00561
1.62888
4.92744
6.48701
6.48134
1
1
1
1
1
1
1
1
1
1
1
1
1
1
1
1
1
1
1
1
1
1
1
1
1
1
1
1
1
1
1
1
1
1
1
1
1
1
1
1
1
1
1
1.00004
1.03249
2.30074
5.58452
6.44956
1
1
1
1
1
1
1
1
1
1
1
1
1
1
1
1
1
1
1
1
1
1
1
1
1
1
1
1
1
1
1
1
1
1
1
1
1
1
1
1
1
1
1
1
1.00037
1.12407
3.15372
5.99297
1
1
1
1
1
1
1
1
1
1
1
1
1
1
1
1
1
1
1
1
1
1
1
1
1
1
1
1
1
1
1
1
1
1
1
1
1
1
1
1
1
1
1
1
1
1.00241
1.33732
4.0537
1
1
1
1
1
1
1
1
1
1
1
1
1
1
1
1
1
1
1
1
1
1
1
1
1
1
1
1
1
1
1
1
1
1
1
1
1
1
1
1
1
1
1
1
1
1.00001
1.01163
1.71765
1
1
1
1
1
1
1
1
1
1
1
1
1
1
1
1
1
1
1
1
1
1
1
1
1
1
1
1
1
1
1
1
1
1
1
1
1
1
1
1
1
1
1
1
1
1
1.0001
1.04263
1
1
1
1
1
1
1
1
1
1
1
1
1
1
1
1
1
1
1
1
1
1
1
1
1
1
1
1
1
1
1
1
1
1
1
1
1
1
1
1
1
1
1
1
1
1
1
1.00057
1
1
1
1
1
1
1
1
1
1
1
1
1
1
1
1
1
1
1
1
1
1
1
1
1
1
1
1
1
1
1
1
1
1
1
1
1
1
1
1
1
1
1
1
1
1
1
1
1
1
1
1
1
1
1
1
1
1
1
1
1
1
1
1
1
1
1
1
1
1
1
1
1
1
1
1
1
1
1
1
1
1
1
1
1
1
1
1
1
1
1
1
1
1
1
1
1
1
1
1
1
1
1
1
1
1
1
1
1
1
1
1
1
1
1
1
1
1
1
1
1
1
1
1
1
1
1
1
1
1
1
1
1
1
1
1
1
1
1
1
1
1
1
1
1
1
1
1
1
1
1
1
1
1
1
1
1
1
1
1
1
1
1
1
1
1
1
1
1
1
1
1
1
1
1
1
1
1
1
1
1
1
1
1
1
1
1
1
1
1
1
1
1
1
1
1
1
1
1
1
1
1
1
1
1
1
1
1
1
1
1
1
1
1
1
1
1
1
1
1
1
1
1
1
1
1
1
1
1
1
1
1
1
1
1
1
1
1
1
1
1
1
1
1
1
1
1
1
1
1
1
1
1
1
1
1
1
1
1
1
1
1
1
1
1
1
1
1
1
1
1
1
1
1
1
1
1
1
1
1
1
1
1
1
1
1
1
1
1
1
1
1
1
1
1
1
1
1
1
1
1
1
1
1
1
1
1
1
1
1
1
1
1
1
1
1
1
1
1
1
1
1
1
1
1
1
1
1
1
1
1
1
1
1
1
1
1
1
1
1
1
1
1
1
1
1
1
1
1
1
1
1
1
1
1
1
1
1
1
1
1
1
1
1
1
1
1
1
1
1
1
1
1
1
1
1
1
1
1
1
1
1
1
1
1
1
1
1
1
1
1
1
1
1
1
1
1
1
1
1
1
1
1
1
1
1
1
1
1
1
1
1
1
1
1
1
1
1
1
1
1
1
1
1
1
1
1
1
1
1
1
1
1
1
1
1
1
1
1
1
1
1
1
1
1
1
1
1
1
1
1
1
1
1
1
1
1
1
1
1
1
1
1
1
1
1
1
1
1
1
1
1
1
1
1
1
1
1
1
1
1
1
1
1
1
1
1
1
1
1
1
1
1
1
1
1
1
1
1
1
1
1
1
1
1
1
1
1
1
1
1
1
1
1
1
1
1
1
1
1
1
1
1
1
1
1
1
1
1
1
1
1
1
1
1
1
1
1
1
1
1
1
1
1
1
1
1
1
1
1
1
1
1
1
1
1
1
1
1
1
1
1
1
1
1
1
1
1
1
1
1
1
1
1
1
1
1
1
1
1
1
1
1
1
1
1
1
1
1
1
1
1
1
1
1
1
1
1
1
1
1
1
1
1
1
1
1
1
1
1
1
1
1
1
1
1
1
1
1
1
1
1
1
1
1
1
1
1
1
1
1
1
1
1
1
1
1
1
1
1
1
1
1
1
1
1
1
1
1
1
1
1
1
1
1
1
1
1
1
1
1
1
1
1
1
1
1
1
1
1
1
1
1
1
1
1
1
1
1
1
1
1
1
1
1
1
1
1
1
1
1
1
1
1
1
1
1
1
1
1
1
1
1
1
1
1
1
1
1
1
1
1
1
1
1
1
1
1
1
1
1
1
1
1
1
1
1
1
1
1
1
1
1
1
1
1
1
1
1
1
1
1
1
1
1
1
1
1
1
1
1
1
1
1
1
1
1
1
1
1
1
1
1
1
1
1
1
1
1.25388
0.230324
0.0339238
0.0349578
0.0526629
0.0878617
0.109945
0.146368
0.215388
0.292409
0.363796
0.419251
0.474457
0.555376
0.635909
0.717924
0.807172
0.884872
0.910084
0.916645
0.927595
0.957949
0.974658
0.976508
1.01003
1.05531
1.0805
1.10632
1.12446
1.13352
1.13943
1.14739
1.15951
1.17791
1.20435
1.22759
1.24407
1.25384
1.26056
1.26172
1.26134
1.26336
1.2701
1.27678
1.28192
1.28779
1.2928
1.29849
1.30497
1.31191
1.32182
1.33519
1.34459
1.34548
1.34266
1.33601
1.32342
1.3168
1.31556
1.31641
1.32428
1.34061
1.35076
1.35024
1.34553
1.33627
1.33014
1.3289
1.32862
1.32846
1.33657
3.53482
6.51857
6.72331
6.69463
6.64941
6.60174
6.55505
6.50009
6.44064
6.38056
6.3207
6.25952
6.19564
6.13026
6.06401
5.99895
5.94008
5.89164
5.85327
5.80866
5.73426
5.6441
5.55159
5.46654
5.3968
5.35027
5.33772
5.33568
5.28528
5.21122
5.12518
5.03288
4.9648
4.91458
4.89027
4.89653
4.89474
4.84779
4.78888
4.70866
4.6191
4.55986
4.51637
4.49052
4.48576
4.45822
4.40891
4.35331
4.28599
4.22407
4.1835
4.15213
4.13476
4.13326
4.12017
4.08654
4.04135
3.96327
3.86552
3.80784
3.77577
3.75194
3.74812
3.74987
3.72308
3.69228
3.65836
3.61483
3.5707
3.54183
3.52072
3.50198
3.47974
3.44838
3.39722
3.33519
3.29367
3.26943
3.24933
3.23018
3.20868
3.18275
3.14742
3.10796
3.07691
3.05304
3.03245
3.01239
2.989
2.95658
2.91881
2.89116
2.87162
2.85505
2.8413
2.83243
2.8233
2.80929
2.78815
2.75023
2.69252
2.64358
2.61772
2.60192
2.58927
2.58101
2.57015
2.55514
2.53242
2.49339
2.45569
2.43683
2.4246
2.41554
2.41302
2.40854
2.39523
2.3754
2.33829
2.2819
2.22315
2.1487
0.957306
0.502878
0.325802
0.238252
0.23307
0.227127
0.220909
0.221882
0.235712
0.278535
0.307785
0.342728
0.393973
0.455068
0.517374
0.59998
0.70788
0.761635
0.778574
0.80736
0.858629
0.897562
0.928231
0.981868
1.03958
1.06439
1.0904
1.10392
1.11252
1.11816
1.1254
1.13718
1.15967
1.19425
1.21856
1.23067
1.23561
1.24002
1.24729
1.25232
1.25777
1.26759
1.27846
1.28725
1.295
1.29865
1.30074
1.30284
1.30517
1.30898
1.3157
1.32407
1.32942
1.33115
1.33067
1.32732
1.32216
1.31895
1.31794
1.32171
1.33326
1.34177
1.34259
1.3405
1.33591
1.3304
1.32698
1.32527
1.32957
1.38388
3.23741
6.49341
6.77652
6.62705
6.55925
6.53521
6.4961
6.44528
6.3899
6.33803
6.28915
6.23734
6.18109
6.12227
6.06069
5.99549
5.92797
5.86291
5.80387
5.74763
5.69266
5.63626
5.57296
5.50216
5.42845
5.36219
5.30967
5.27227
5.24368
5.20329
5.14768
5.08509
5.01108
4.9443
4.89681
4.86637
4.8409
4.81028
4.76452
4.71087
4.65303
4.58932
4.53523
4.49365
4.46463
4.44146
4.40663
4.36262
4.31587
4.25989
4.20322
4.16147
4.13124
4.10771
4.07984
4.04928
4.01282
3.96171
3.90646
3.84804
3.79798
3.76598
3.7475
3.73503
3.71607
3.68878
3.65852
3.62328
3.58267
3.54387
3.51266
3.48703
3.46336
3.43706
3.40056
3.35718
3.3111
3.27161
3.24455
3.22336
3.20424
3.18179
3.15236
3.11994
3.08845
3.05876
3.0321
3.00866
2.98544
2.95814
2.92613
2.89771
2.8757
2.85713
2.84061
2.82409
2.80637
2.78976
2.77085
2.74392
2.70783
2.66949
2.63362
2.60754
2.59117
2.57757
2.5637
2.54776
2.52855
2.50243
2.47104
2.44537
2.42921
2.41678
2.40403
2.39114
2.37767
2.35938
2.33223
2.29733
2.24579
2.86983
1.78984
1.23096
0.826082
0.554801
0.47956
0.426803
0.355517
0.320637
0.32463
0.327066
0.338188
0.369706
0.397249
0.416518
0.438437
0.468539
0.517603
0.587823
0.650438
0.706736
0.766516
0.830008
0.888222
0.957017
1.02904
1.05848
1.083
1.10063
1.11039
1.11341
1.12724
1.14992
1.17697
1.20932
1.22364
1.23042
1.23093
1.22788
1.23105
1.23834
1.25024
1.26804
1.28831
1.30322
1.30837
1.308
1.30704
1.30891
1.31299
1.31918
1.32263
1.32294
1.32364
1.32478
1.32713
1.32855
1.32749
1.32469
1.32335
1.32527
1.33319
1.34005
1.34143
1.34124
1.33924
1.3309
1.32349
1.32691
1.38574
1.69869
2.85943
5.88076
6.79262
6.69906
6.56241
6.53238
6.50452
6.46763
6.4113
6.34386
6.2832
6.22919
6.18024
6.1303
6.0748
6.01416
5.95502
5.89229
5.81727
5.73274
5.65385
5.58892
5.54193
5.506
5.46946
5.41889
5.34873
5.27059
5.20277
5.15187
5.12103
5.09398
5.05718
5.01336
4.95142
4.86978
4.79532
4.74296
4.7048
4.6794
4.64971
4.61006
4.56601
4.51168
4.45349
4.40722
4.36942
4.34251
4.31899
4.2882
4.252
4.20619
4.1455
4.08319
4.039
3.99902
3.95874
3.93249
3.90967
3.87991
3.84369
3.79931
3.75628
3.72411
3.69811
3.67621
3.65274
3.6281
3.599
3.55731
3.50758
3.46853
3.43775
3.40885
3.38657
3.36445
3.33798
3.29938
3.25322
3.2152
3.18594
3.16165
3.14252
3.12286
3.10224
3.0768
3.04385
3.0082
2.97798
2.95346
2.93078
2.90852
2.88562
2.86175
2.83743
2.81381
2.79047
2.76538
2.74087
2.71999
2.70537
2.68982
2.66741
2.63378
2.59749
2.57203
2.55455
2.53779
2.51932
2.50141
2.48296
2.4616
2.43807
2.41555
2.39425
2.37188
2.34999
2.32935
2.30917
2.29456
2.26935
3.48147
2.47118
1.85982
1.36202
1.0085
0.858542
0.724031
0.588098
0.523802
0.514547
0.488342
0.463334
0.455723
0.445192
0.434146
0.432447
0.431063
0.436705
0.460811
0.513868
0.582506
0.636808
0.696064
0.773272
0.851696
0.932047
0.970571
0.989244
1.02058
1.06833
1.09091
1.11796
1.15025
1.17753
1.20113
1.21873
1.22869
1.23299
1.23178
1.22695
1.2301
1.2391
1.25093
1.27132
1.2857
1.28942
1.28993
1.29077
1.29646
1.30628
1.31801
1.32503
1.32745
1.32757
1.32573
1.3241
1.32409
1.32339
1.32183
1.32176
1.32351
1.32602
1.3302
1.33601
1.33851
1.33795
1.33171
1.33183
1.37813
1.72385
2.55175
2.95552
4.12111
5.76765
6.54597
6.65433
6.56718
6.44996
6.3984
6.36739
6.31663
6.26469
6.20416
6.15368
6.11219
6.05839
5.99102
5.92728
5.86997
5.80931
5.74275
5.6651
5.58462
5.52411
5.47776
5.44414
5.40952
5.35781
5.2957
5.22528
5.16502
5.12193
5.09034
5.06006
5.02282
4.97577
4.90953
4.82199
4.74439
4.69676
4.66118
4.6329
4.60117
4.56237
4.51487
4.45415
4.39466
4.35209
4.31932
4.29521
4.27694
4.25134
4.21668
4.16893
4.10035
4.02435
3.96786
3.93579
3.91511
3.90124
3.88423
3.85835
3.82475
3.77918
3.73116
3.69411
3.66763
3.64533
3.62372
3.59941
3.56691
3.51742
3.45808
3.41457
3.3901
3.37218
3.35675
3.33821
3.31271
3.2694
3.21428
3.17733
3.15494
3.13592
3.11849
3.10148
3.0826
3.05776
3.01906
2.97408
2.94585
2.92805
2.91054
2.89181
2.86987
2.84289
2.81094
2.77626
2.74308
2.71672
2.70201
2.6926
2.68784
2.67749
2.65866
2.62637
2.5805
2.54428
2.52406
2.50988
2.49767
2.48495
2.47
2.44859
2.4177
2.38366
2.35519
2.33107
2.3104
2.29653
2.29168
2.27769
3.97623
3.00918
2.3837
1.91155
1.51216
1.25865
1.05977
0.853665
0.775304
0.723148
0.669265
0.630919
0.600846
0.562939
0.53945
0.523024
0.498887
0.488194
0.493492
0.518449
0.531728
0.539507
0.550172
0.580253
0.624745
0.689087
0.768888
0.83474
0.906753
0.996215
1.04017
1.06726
1.09671
1.12797
1.1538
1.17445
1.198
1.22337
1.23198
1.23299
1.23503
1.24146
1.25017
1.26783
1.28058
1.28411
1.28581
1.2898
1.30199
1.31746
1.32441
1.3265
1.32478
1.31642
1.30699
1.30535
1.30908
1.31843
1.3322
1.34054
1.34234
1.34022
1.33412
1.32921
1.32507
1.32201
1.32832
1.37262
1.71252
2.48549
3.18885
3.25613
3.3574
4.07647
5.52145
6.34382
6.57046
6.54524
6.46847
6.37947
6.29894
6.23596
6.1808
6.13576
6.10391
6.04838
5.97937
5.89359
5.81704
5.76212
5.70989
5.65465
5.59035
5.51734
5.45579
5.40518
5.35991
5.31867
5.27451
5.22788
5.18273
5.13825
5.09347
5.04934
5.00539
4.95955
4.90577
4.83769
4.76286
4.70362
4.66318
4.62934
4.59428
4.55427
4.50534
4.44815
4.39496
4.35319
4.31898
4.28969
4.2623
4.23072
4.19535
4.15338
4.1006
4.03791
3.98075
3.94386
3.91974
3.90125
3.87865
3.85107
3.81731
3.77624
3.73458
3.69744
3.66627
3.64063
3.61668
3.59046
3.55797
3.51446
3.46134
3.41573
3.38863
3.36935
3.35096
3.33111
3.3053
3.26496
3.21552
3.18068
3.15841
3.13903
3.1204
3.10224
3.08365
3.06136
3.02841
2.98303
2.94393
2.92105
2.90324
2.88502
2.86435
2.83864
2.80613
2.76802
2.73155
2.70894
2.6966
2.68676
2.67924
2.67185
2.65913
2.64033
2.60611
2.55633
2.51914
2.50153
2.48923
2.47771
2.46452
2.44733
2.41993
2.37959
2.34086
2.31641
2.30298
2.29358
2.29261
2.28033
4.33192
3.51852
2.87623
2.34534
1.95595
1.65283
1.4144
1.17523
1.0426
0.957862
0.861773
0.816054
0.786815
0.740723
0.686678
0.665193
0.630397
0.580674
0.568272
0.569066
0.55903
0.551266
0.556102
0.552053
0.548035
0.554696
0.577647
0.617082
0.675323
0.770574
0.876167
0.94856
1.00152
1.05377
1.09732
1.12781
1.16144
1.197
1.21481
1.2198
1.22169
1.22542
1.23121
1.24536
1.26036
1.26934
1.27677
1.28252
1.29564
1.30978
1.31281
1.31306
1.30864
1.30176
1.29863
1.29926
1.30618
1.32465
1.34206
1.34538
1.3447
1.33673
1.32199
1.31177
1.30922
1.31411
1.36619
1.66485
2.54454
3.11842
3.34835
3.35318
3.31168
3.35403
3.94375
5.24014
6.19345
6.50657
6.52637
6.40717
6.28187
6.19843
6.15732
6.12916
6.1045
6.04532
5.97161
5.8825
5.80416
5.7494
5.69763
5.643
5.58164
5.50638
5.43142
5.37112
5.32216
5.28227
5.24971
5.21462
5.17203
5.12327
5.0705
5.02492
4.98456
4.94517
4.90461
4.85882
4.80196
4.73401
4.66937
4.61791
4.57203
4.52543
4.47905
4.43566
4.39459
4.35273
4.31088
4.27276
4.23742
4.20237
4.16717
4.13312
4.10102
4.0674
4.02713
3.97843
3.93492
3.9039
3.87327
3.83785
3.79979
3.76445
3.73168
3.69762
3.66255
3.63169
3.60431
3.57527
3.54356
3.50989
3.47487
3.43706
3.39754
3.36524
3.34071
3.31635
3.28687
3.25202
3.2191
3.18992
3.16214
3.13889
3.11983
3.1015
3.08257
3.06083
3.03262
2.99556
2.95386
2.91914
2.8949
2.87335
2.84904
2.82064
2.79039
2.7615
2.73734
2.71653
2.6973
2.68249
2.67086
2.66095
2.6504
2.63576
2.6125
2.57576
2.53494
2.50301
2.48117
2.46535
2.45042
2.43243
2.40743
2.37557
2.34515
2.32329
2.30861
2.29746
2.29165
2.27539
4.61045
3.91215
3.28819
2.75132
2.36532
2.0277
1.73039
1.49143
1.34673
1.22677
1.10873
1.01085
0.961872
0.909235
0.839034
0.790577
0.757421
0.717643
0.674406
0.665737
0.661611
0.644007
0.622657
0.599496
0.579929
0.579707
0.584171
0.585258
0.592281
0.613588
0.656525
0.716006
0.786774
0.865802
0.95202
1.01935
1.06823
1.12068
1.16886
1.19533
1.2073
1.21114
1.21389
1.22413
1.24214
1.25983
1.27378
1.28132
1.29128
1.2977
1.29948
1.30024
1.29726
1.29416
1.29463
1.29757
1.30793
1.32356
1.33426
1.33721
1.33695
1.32912
1.3132
1.30433
1.30604
1.35534
1.71282
2.49868
3.21872
3.30693
3.33119
3.33311
3.31246
3.28391
3.32182
3.77882
5.01776
6.13846
6.4397
6.42255
6.3017
6.20802
6.15727
6.11587
6.07046
6.00995
5.94862
5.88756
5.81928
5.74883
5.68606
5.62679
5.56355
5.49927
5.43858
5.38356
5.33382
5.2898
5.24872
5.20455
5.15508
5.10052
5.04968
5.00641
4.96714
4.93004
4.8935
4.85631
4.81304
4.75498
4.68051
4.60338
4.53922
4.49007
4.45216
4.41898
4.38497
4.34736
4.30406
4.25615
4.2112
4.1753
4.14745
4.12461
4.1109
4.09398
4.06754
4.02626
3.96111
3.89568
3.84953
3.8126
3.78011
3.75135
3.72337
3.69188
3.65288
3.61506
3.58235
3.55387
3.52943
3.50857
3.48785
3.46161
3.42356
3.37472
3.33072
3.29582
3.26557
3.2414
3.22083
3.19857
3.17168
3.14175
3.11794
3.0986
3.07865
3.0567
3.03211
3.00415
2.96916
2.92512
2.88336
2.85209
2.82431
2.79836
2.77855
2.76411
2.74966
2.732
2.71015
2.68544
2.66371
2.64882
2.63715
2.62399
2.60282
2.57542
2.54728
2.51787
2.48568
2.45671
2.43333
2.41035
2.38768
2.37046
2.35774
2.34415
2.32782
2.3088
2.29282
2.27232
4.84411
4.23304
3.63082
3.12438
2.7264
2.38318
2.05601
1.83006
1.64058
1.47932
1.33656
1.25232
1.16878
1.09189
1.01531
0.928669
0.869054
0.846018
0.813791
0.775447
0.766167
0.747497
0.716777
0.69199
0.657428
0.634383
0.624842
0.61229
0.609872
0.616557
0.622311
0.626146
0.636192
0.659221
0.700833
0.76855
0.852948
0.941785
1.02144
1.08717
1.14826
1.18741
1.19706
1.21417
1.23188
1.24937
1.27393
1.28688
1.28918
1.28343
1.27355
1.27172
1.2755
1.28251
1.29051
1.30401
1.3167
1.31815
1.31726
1.3182
1.31837
1.31211
1.30439
1.3052
1.34451
1.6995
2.53694
3.16537
3.37962
3.38785
3.36164
3.33704
3.3063
3.28242
3.25248
3.27033
3.64335
4.8427
5.93813
6.34344
6.32209
6.25289
6.16972
6.09025
6.02612
5.97738
5.93388
5.88993
5.82853
5.74827
5.6571
5.58524
5.5348
5.49337
5.45654
5.41695
5.36595
5.30168
5.22894
5.16239
5.11464
5.07484
5.03542
4.99631
4.95643
4.91661
4.87882
4.84102
4.79858
4.74769
4.68764
4.61608
4.5406
4.48125
4.44109
4.40782
4.37559
4.34254
4.30565
4.26151
4.21471
4.1776
4.15279
4.13989
4.13354
4.11467
4.08473
4.04283
3.97822
3.89781
3.8381
3.80169
3.77308
3.74626
3.71857
3.68489
3.63884
3.58564
3.55261
3.53301
3.51779
3.50732
3.49449
3.47279
3.44145
3.38952
3.32693
3.28106
3.25415
3.2348
3.21609
3.19615
3.1739
3.14543
3.11357
3.08841
3.06674
3.04703
3.02912
3.01052
2.98525
2.9406
2.87589
2.82544
2.79919
2.78401
2.77234
2.76402
2.75435
2.74086
2.72489
2.70414
2.67838
2.65099
2.62563
2.60013
2.57841
2.5626
2.54796
2.52963
2.4996
2.45535
2.41572
2.39221
2.37912
2.36982
2.36334
2.35563
2.34375
2.32743
2.30439
2.26005
5.03323
4.4786
3.91672
3.45757
3.06473
2.69679
2.3748
2.14258
1.92979
1.74462
1.58175
1.47035
1.36318
1.25965
1.18139
1.10314
1.00727
0.963407
0.940571
0.899594
0.867828
0.847648
0.811738
0.783896
0.761311
0.725035
0.703785
0.691822
0.678559
0.6674
0.656544
0.64403
0.638112
0.637809
0.639497
0.647347
0.669326
0.720332
0.799546
0.880329
0.959531
1.03897
1.10647
1.15809
1.18983
1.21862
1.25679
1.2773
1.28171
1.28157
1.26614
1.25813
1.26201
1.27023
1.28882
1.3148
1.32367
1.32231
1.3129
1.3
1.29219
1.28993
1.29464
1.34309
1.64982
2.57252
3.15487
3.34016
3.39103
3.37129
3.34704
3.32267
3.30105
3.27991
3.25788
3.24068
3.24943
3.53621
4.54203
5.73579
6.17606
6.27816
6.1963
6.0989
6.00846
5.95359
5.91546
5.87809
5.82029
5.74402
5.64175
5.55799
5.50903
5.47188
5.45192
5.42554
5.37849
5.31452
5.2275
5.14757
5.09215
5.05019
5.01216
4.974
4.93174
4.88375
4.83204
4.78984
4.75601
4.7237
4.68325
4.63283
4.57815
4.51939
4.46088
4.41432
4.37786
4.34477
4.31244
4.28013
4.24598
4.2066
4.16082
4.12108
4.09502
4.07982
4.05994
4.0265
3.97786
3.91811
3.86067
3.81309
3.77352
3.73818
3.70388
3.66734
3.62316
3.57442
3.54064
3.52119
3.51062
3.5086
3.49744
3.47451
3.44239
3.39507
3.33964
3.29073
3.25576
3.23189
3.21354
3.19602
3.17588
3.14713
3.10614
3.0741
3.05818
3.04731
3.03356
3.01431
2.98742
2.94144
2.87468
2.81899
2.793
2.77845
2.76749
2.76045
2.75485
2.74729
2.73557
2.71981
2.69427
2.65045
2.60152
2.57522
2.56475
2.55675
2.54556
2.52902
2.50251
2.46124
2.41418
2.38931
2.37793
2.36983
2.36692
2.36302
2.35306
2.33792
2.31074
2.24892
5.18762
4.66615
4.16479
3.74471
3.35544
2.97136
2.68139
2.42518
2.19835
1.97836
1.83034
1.68927
1.56529
1.43557
1.32778
1.24868
1.16436
1.10406
1.07609
1.03848
0.989164
0.954383
0.918702
0.876446
0.854933
0.828697
0.789619
0.766864
0.751795
0.73823
0.725257
0.701041
0.669798
0.657788
0.657018
0.656518
0.660639
0.67107
0.684046
0.700961
0.73078
0.783251
0.86123
0.946341
1.03446
1.1068
1.17423
1.23841
1.25994
1.26829
1.26762
1.25488
1.25333
1.26164
1.28884
1.3137
1.31887
1.31775
1.31001
1.28874
1.27481
1.27599
1.3277
1.65852
2.47266
3.27012
3.32016
3.31666
3.31433
3.33033
3.33353
3.31285
3.28908
3.26534
3.24862
3.23185
3.21495
3.21856
3.40464
4.27097
5.41186
6.05084
6.1667
6.10301
6.00924
5.94435
5.89774
5.85058
5.7936
5.72507
5.63737
5.54578
5.48725
5.44638
5.42237
5.40644
5.36635
5.31607
5.24661
5.15345
5.07955
5.03257
4.99339
4.95449
4.91204
4.86522
4.81092
4.75269
4.70543
4.67097
4.64859
4.63288
4.60142
4.56442
4.51493
4.45449
4.39656
4.35522
4.32305
4.29246
4.25994
4.21986
4.16901
4.11618
4.06841
4.03653
4.01183
3.98688
3.95939
3.92513
3.88298
3.83817
3.78871
3.74153
3.70034
3.66279
3.62704
3.59242
3.55517
3.51601
3.48481
3.46409
3.44738
3.43187
3.41272
3.38685
3.35386
3.31996
3.2844
3.24758
3.21459
3.1856
3.15845
3.1328
3.10468
3.07311
3.04201
3.02073
3.00545
2.98852
2.96471
2.92966
2.88484
2.84482
2.81085
2.78392
2.76718
2.75701
2.75665
2.7547
2.741
2.72297
2.693
2.64313
2.59421
2.56634
2.54416
2.52633
2.51501
2.50457