/*--------------------------------*- C++ -*----------------------------------*\
  =========                 |
  \\      /  F ield         | OpenFOAM: The Open Source CFD Toolbox
   \\    /   O peration     | Website:  https://openfoam.org
    \\  /    A nd           | Version:  7
     \\/     M anipulation  |
\*---------------------------------------------------------------------------*/
FoamFile
{
    version     2.0;
    format      ascii;
    class       volScalarField;
    location    "2.7";
    object      T;
}
// * * * * * * * * * * * * * * * * * * * * * * * * * * * * * * * * * * * * * //

dimensions      [0 0 0 1 0 0 0];

internalField   nonuniform List<scalar> 
16128
(
1
1
1
1
1
1
1
1
1
1
1
1
1
1
1
1
1
1
1
1
1
1
1
1
1.84704
2.65046
2.70654
2.72062
2.734
2.74378
2.7505
2.75419
2.756
2.75744
2.76006
2.76538
2.77365
2.7829
2.79035
2.79455
2.79648
2.79792
2.80007
2.80358
2.80851
2.81388
2.81812
2.82009
1
1
1
1
1
1
1
1
1
1
1
1
1
1
1
1
1
1
1
1
1
1
1
1
1.83462
2.64673
2.70612
2.7206
2.73391
2.74359
2.75022
2.75383
2.75559
2.757
2.75961
2.76496
2.77325
2.78246
2.78982
2.79392
2.79576
2.79714
2.79925
2.80275
2.80767
2.81302
2.81722
2.81921
1
1
1
1
1
1
1
1
1
1
1
1
1
1
1
1
1
1
1
1
1
1
1
1
1.80267
2.63943
2.70413
2.71912
2.73269
2.74242
2.74904
2.75265
2.75442
2.75585
2.75852
2.76397
2.77235
2.7816
2.7889
2.79292
2.79469
2.79602
2.79808
2.80152
2.80638
2.81165
2.81576
2.81772
1
1
1
1
1
1
1
1
1
1
1
1
1
1
1
1
1
1
1
1
1
1
1
1
1.75357
2.62627
2.69998
2.71609
2.73035
2.74037
2.74711
2.75075
2.75254
2.75401
2.75671
2.76221
2.77067
2.77999
2.78732
2.79132
2.79306
2.79436
2.79638
2.79977
2.80457
2.80974
2.8137
2.81561
1
1
1
1
1
1
1
1
1
1
1
1
1
1
1
1
1
1
1
1
1
1
1
1
1.68574
2.60568
2.69377
2.71162
2.72702
2.73751
2.74454
2.74832
2.75018
2.75165
2.75429
2.75968
2.76807
2.77742
2.78486
2.78898
2.79077
2.79206
2.79405
2.7974
2.80216
2.80729
2.81117
2.81308
1
1
1
1
1
1
1
1
1
1
1
1
1
1
1
1
1
1
1
1
1
1
1
1
1.60159
2.58043
2.68763
2.70626
2.72243
2.73321
2.74051
2.74453
2.74658
2.74817
2.75084
2.75614
2.76444
2.77385
2.78149
2.78584
2.78776
2.78907
2.79101
2.7943
2.79901
2.8041
2.8079
2.80981
1
1
1
1
1
1
1
1
1
1
1
1
1
1
1
1
1
1
1
1
1
1
1
1
1.49936
2.54694
2.68423
2.70079
2.71684
2.72777
2.73572
2.74038
2.74289
2.7447
2.74731
2.75228
2.76015
2.76935
2.77709
2.78171
2.78384
2.7852
2.7871
2.79032
2.79501
2.8001
2.80391
2.80586
1
1
1
1
1
1
1
1
1
1
1
1
1
1
1
1
1
1
1
1
1
1
1
1
1.37495
2.49782
2.68477
2.69448
2.70923
2.72034
2.7294
2.73528
2.73867
2.74086
2.7434
2.74788
2.75512
2.76396
2.77182
2.77681
2.77923
2.78066
2.78247
2.78552
2.79008
2.79505
2.79881
2.80072
1
1
1
1
1
1
1
1
1
1
1
1
1
1
1
1
1
1
1
1
1
1
1
1
1.2309
2.43015
2.6855
2.68808
2.70028
2.71127
2.72151
2.72901
2.73369
2.73654
2.73912
2.74304
2.74941
2.75765
2.76547
2.77082
2.77353
2.775
2.77666
2.77953
2.78394
2.78882
2.79262
2.79455
1
1
1
1
1
1
1
1
1
1
1
1
1
1
1
1
1
1
1
1
1
1
1
1
1.08094
2.35491
2.68661
2.68588
2.69396
2.70286
2.71295
2.72164
2.72785
2.73168
2.73438
2.73769
2.74302
2.7504
2.75802
2.76369
2.76679
2.76836
2.76992
2.77261
2.77666
2.78107
2.78461
2.78628
1
1
1
1
1
1
1
1
1
1
1
1
1
1
1
1
1
1
1
1
1
1
1
1
1.00278
2.26668
2.6841
2.68404
2.68951
2.69725
2.70651
2.71509
2.72177
2.72609
2.72904
2.73194
2.73622
2.74248
2.74958
2.75538
2.75875
2.76032
2.76159
2.76375
2.76714
2.77131
2.77474
2.77652
1
1
1
1
1
1
1
1
1
1
1
1
1
1
1
1
1
1
1
1
1
1
1
1
1.00001
2.1494
2.67685
2.68357
2.68875
2.69513
2.70258
2.71013
2.71659
2.72108
2.72369
2.72577
2.72892
2.73388
2.74014
2.74575
2.74924
2.75079
2.75192
2.7536
2.75616
2.75953
2.76198
2.76272
1
1
1
1
1
1
1
1
1
1
1
1
1
1
1
1
1
1
1
1
1
1
1
1
1
1.99408
2.65008
2.67918
2.687
2.69407
2.70053
2.70639
2.71132
2.71486
2.71713
2.71891
2.72104
2.72459
2.72967
2.73475
2.73812
2.73954
2.74002
2.74012
2.74094
2.74303
2.74453
2.74576
1
1
1
1
1
1
1
1
1
1
1
1
1
1
1
1
1
1
1
1
1
1
1
1
1
1.80128
2.59496
2.66531
2.6787
2.68901
2.69636
2.70208
2.7064
2.70934
2.71105
2.71201
2.71317
2.71536
2.71894
2.72296
2.72559
2.72607
2.72536
2.72426
2.72369
2.72414
2.72237
2.71737
1
1
1
1
1
1
1
1
1
1
1
1
1
1
1
1
1
1
1
1
1
1
1
1
1
1.54003
2.49216
2.64727
2.6643
2.67647
2.68548
2.69279
2.69817
2.70178
2.70385
2.70485
2.7054
2.70637
2.70833
2.7105
2.71158
2.71088
2.70867
2.70514
2.70022
2.69344
2.68567
2.6782
1
1
1
1
1
1
1
1
1
1
1
1
1
1
1
1
1
1
1
1
1
1
1
1
1
1.20943
2.38194
2.64282
2.64078
2.65258
2.666
2.67711
2.6852
2.69079
2.69419
2.69604
2.69694
2.69753
2.69779
2.69789
2.697
2.69437
2.68935
2.68166
2.67137
2.65965
2.65111
2.65618
1
1
1
1
1
1
1
1
1
1
1
1
1
1
1
1
1
1
1
1
1
1
1
1
1
1.0118
2.28364
2.63253
2.62879
2.6365
2.64623
2.65751
2.66744
2.6753
2.68077
2.68438
2.68638
2.68694
2.68639
2.68488
2.68182
2.67664
2.66837
2.65657
2.63908
2.61152
2.55225
2.43529
1
1
1
1
1
1
1
1
1
1
1
1
1
1
1
1
1
1
1
1
1
1
1
1
1
1.00003
2.11303
2.62355
2.62696
2.63074
2.63495
2.64146
2.6494
2.6575
2.66403
2.66932
2.67291
2.6743
2.67354
2.67104
2.66614
2.6582
2.64625
2.62865
2.60161
2.55462
2.48323
2.2979
1
1
1
1
1
1
1
1
1
1
1
1
1
1
1
1
1
1
1
1
1
1
1
1
1
1
1.86631
2.58404
2.62874
2.63098
2.63381
2.63463
2.63695
2.64151
2.64638
2.6517
2.6563
2.65885
2.65833
2.65551
2.64942
2.63909
2.62363
2.60062
2.56607
2.51198
2.41682
2.22555
1
1
1
1
1
1
1
1
1
1
1
1
1
1
1
1
1
1
1
1
1
1
1
1
1
1
1.50478
2.46467
2.62088
2.62578
2.6297
2.62937
2.62971
2.63093
2.63251
2.63528
2.63853
2.64098
2.6406
2.6378
2.6311
2.61931
2.60097
2.57436
2.53379
2.47616
2.37029
2.20712
1
1
1
1
1
1
1
1
1
1
1
1
1
1
1
1
1
1
1
1
1
1
1
1
1
1
1.07481
2.31587
2.61701
2.61745
2.62076
2.62274
2.6229
2.62233
2.62094
2.62072
2.62113
2.62192
2.62121
2.61818
2.61115
2.59875
2.57889
2.55015
2.50732
2.44803
2.34502
2.21481
1
1
1
1
1
1
1
1
1
1
1
1
1
1
1
1
1
1
1
1
1
1
1
1
1
1
1.00137
2.15727
2.57726
2.59137
2.60213
2.60977
2.61306
2.61297
2.61082
2.6085
2.606
2.60392
2.60132
2.59709
2.58945
2.57685
2.55689
2.52752
2.48535
2.4265
2.33417
2.22744
1
1
1
1
1
1
1
1
1
1
1
1
1
1
1
1
1
1
1
1
1
1
1
1
1
1
0.999989
1.86417
2.52983
2.57291
2.58691
2.59615
2.60162
2.60288
2.60133
2.59825
2.59391
2.5891
2.58364
2.57708
2.56793
2.55463
2.53486
2.50608
2.46612
2.41022
2.33079
2.24074
1
1
1
1
1
1
1
1
1
1
1
1
1
1
1
1
1
1
1
1
1
1
1
1
1
1
0.999997
1.42206
2.41237
2.5591
2.56907
2.57938
2.58626
2.58958
2.58919
2.58683
2.58218
2.5759
2.56805
2.55887
2.5475
2.53289
2.51306
2.4853
2.44775
2.39667
2.32896
2.25158
1
1
1
1
1
1
1
1
1
1
1
1
1
1
1
1
1
1
1
1
1
1
1
1
1
1
1
1.04682
2.25674
2.55919
2.55521
2.55983
2.56712
2.57244
2.57442
2.57339
2.56976
2.56356
2.55473
2.54372
2.53015
2.51352
2.49291
2.46571
2.4299
2.38408
2.32684
2.25987
1
1
1
1
1
1
1
1
1
1
1
1
1
1
1
1
1
1
1
1
1
1
1
1
1
1
1
1.0004
2.00032
2.51761
2.53746
2.54576
2.55005
2.55456
2.5576
2.5575
2.5552
2.55002
2.54157
2.5299
2.51517
2.49704
2.47523
2.44801
2.41335
2.37226
2.3231
2.26513
1
1
1
1
1
1
1
1
1
1
1
1
1
1
1
1
1
1
1
1
1
1
1
1
1
1
1
0.999998
1.53018
2.4142
2.52804
2.53142
2.5363
2.53946
2.54136
2.54114
2.53922
2.53493
2.52745
2.5164
2.50168
2.4831
2.46035
2.43283
2.39934
2.36193
2.31774
2.2678
1
1
1
1
1
1
1
1
1
1
1
1
1
1
1
1
1
1
1
1
1
1
1
1
1
1
1
0.999999
1.07364
2.24856
2.52494
2.51964
2.52189
2.524
2.5246
2.52405
2.52214
2.51833
2.51183
2.50192
2.48822
2.47029
2.44777
2.42032
2.3882
2.35324
2.31218
2.26806
1
1
1
1
1
1
1
1
1
1
1
1
1
1
1
1
1
1
1
1
1
1
1
1
1
1
1
1
1.00108
1.97213
2.47575
2.50057
2.50961
2.50936
2.50887
2.50793
2.5055
2.50142
2.49505
2.48602
2.47358
2.45702
2.43592
2.40959
2.37944
2.34642
2.30813
2.26829
1
1
1
1
1
1
1
1
1
1
1
1
1
1
1
1
1
1
1
1
1
1
1
1
1
1
1
1
0.999995
1.4375
2.35893
2.49332
2.4928
2.49362
2.49417
2.49303
2.49003
2.48531
2.47865
2.46949
2.45815
2.44284
2.42352
2.3994
2.3718
2.34065
2.30522
2.2683
1
1
1
1
1
1
1
1
1
1
1
1
1
1
1
1
1
1
1
1
1
1
1
1
1
1
1
1
0.999999
1.04698
2.18801
2.47468
2.47366
2.47551
2.47751
2.47708
2.47421
2.46913
2.46202
2.45293
2.44153
2.42765
2.41037
2.38895
2.36427
2.33542
2.30307
2.26838
1
1
1
1
1
1
1
1
1
1
1
1
1
1
1
1
1
1
1
1
1
1
1
1
1
1
1
1
1
1.00037
1.78611
2.40704
2.45531
2.45977
2.46304
2.46226
2.45905
2.45382
2.44661
2.43735
2.42594
2.41252
2.39659
2.37756
2.35562
2.32943
2.30018
2.26787
1
1
1
1
1
1
1
1
1
1
1
1
1
1
1
1
1
1
1
1
1
1
1
1
1
1
1
1
1
0.999999
1.17535
2.25701
2.45863
2.4495
2.44869
2.44638
2.44191
2.43671
2.43003
2.4214
2.41071
2.39797
2.38302
2.36586
2.34595
2.32247
2.29623
2.26661
1
1
1
1
1
1
1
1
1
1
1
1
1
1
1
1
1
1
1
1
1
1
1
1
1
1
1
1
1
1
1.00681
2.01263
2.42233
2.42752
2.43015
2.42797
2.42449
2.4202
2.41427
2.40634
2.39634
2.3843
2.37017
2.35417
2.33552
2.31418
2.29056
2.26399
1
1
1
1
1
1
1
1
1
1
1
1
1
1
1
1
1
1
1
1
1
1
1
1
1
1
1
1
1
1
0.999997
1.4229
2.30537
2.42691
2.41861
2.4124
2.40883
2.40501
2.39954
2.39219
2.3829
2.37162
2.35823
2.34279
2.32519
2.30559
2.28401
2.26017
1
1
1
1
1
1
1
1
1
1
1
1
1
1
1
1
1
1
1
1
1
1
1
1
1
1
1
1
1
1
0.999998
1.04232
2.12785
2.41078
2.39831
2.39479
2.39235
2.38899
2.3841
2.37742
2.36896
2.35855
2.34607
2.33145
2.31496
2.2967
2.27678
2.25499
1
1
1
1
1
1
1
1
1
1
1
1
1
1
1
1
1
1
1
1
1
1
1
1
1
1
1
1
1
1
0.999999
1.0003
1.63346
2.31891
2.38307
2.38252
2.38061
2.37679
2.37146
2.36465
2.3564
2.34635
2.33446
2.32077
2.3053
2.28809
2.26942
2.24905
1
1
1
1
1
1
1
1
1
1
1
1
1
1
1
1
1
1
1
1
1
1
1
1
1
1
1
1
1
1
1
1
1.10552
2.1384
2.37991
2.37588
2.37117
2.36509
2.35842
2.35101
2.34279
2.33321
2.32203
2.30924
2.29489
2.27889
2.26143
2.24234
1
1
1
1
1
1
1
1
1
1
1
1
1
1
1
1
1
1
1
1
1
1
1
1
1
1
1
1
1
1
1
1
1.00219
1.69309
2.29471
2.36021
2.35603
2.35125
2.34554
2.33856
2.33034
2.32102
2.31042
2.29832
2.28478
2.2697
2.2532
2.23528
1
1
1
1
1
1
1
1
1
1
1
1
1
1
1
1
1
1
1
1
1
1
1
1
1
1
1
1
1
1
1
1
1
1.13855
2.11837
2.35119
2.3452
2.34076
2.33501
2.32768
2.31902
2.30922
2.29859
2.28687
2.27396
2.25973
2.24422
2.22754
1
1
1
1
1
1
1
1
1
1
1
1
1
1
1
1
1
1
1
1
1
1
1
1
1
1
1
1
1
1
1
1
1
1.00391
1.68955
2.26258
2.32947
2.32602
2.32132
2.31476
2.30674
2.29735
2.28707
2.27576
2.26337
2.24985
2.23519
2.21946
1
1
1
1
1
1
1
1
1
1
1
1
1
1
1
1
1
1
1
1
1
1
1
1
1
1
1
1
1
1
1
1
1
1.00001
1.14252
2.07881
2.31592
2.31318
2.30887
2.3028
2.29562
2.28698
2.27692
2.26561
2.25333
2.24022
2.22625
2.21135
1
1
1
1
1
1
1
1
1
1
1
1
1
1
1
1
1
1
1
1
1
1
1
1
1
1
1
1
1
1
1
1
1
1
1.00419
1.60663
2.21152
2.29779
2.29141
2.28675
2.28123
2.2741
2.26517
2.25479
2.24335
2.231
2.21781
2.20383
1
1
1
1
1
1
1
1
1
1
1
1
1
1
1
1
1
1
1
1
1
1
1
1
1
1
1
1
1
1
1
1
1
1
1.00001
1.10808
2.02183
2.28606
2.27661
2.27264
2.26796
2.26191
2.25424
2.24514
2.23477
2.22314
2.21041
2.19691
1
1
1
1
1
1
1
1
1
1
1
1
1
1
1
1
1
1
1
1
1
1
1
1
1
1
1
1
1
1
1
1
1
1
1
1.00245
1.49245
2.15705
2.25998
2.25486
2.25127
2.24618
2.24013
2.23279
2.22403
2.21381
2.20214
2.18925
1
1
1
1
1
1
1
1
1
1
1
1
1
1
1
1
1
1
1
1
1
1
1
1
1
1
1
1
1
1
1
1
1
1
1
1.00001
1.06448
1.92021
2.24664
2.24458
2.23875
2.23215
2.22702
2.22117
2.21387
2.20491
2.1943
2.18215
1
1
1
1
1
1
1
1
1
1
1
1
1
1
1
1
1
1
1
1
1
1
1
1
1
1
1
1
1
1
1
1
1
1
1
1
1.00096
1.35414
2.09256
2.23129
2.22084
2.21692
2.21244
2.20728
2.20092
2.19308
2.18377
2.17305
1
1
1
1
1
1
1
1
1
1
1
1
1
1
1
1
1
1
1
1
1
1
1
1
1
1
1
1
1
1
1
1
1
1
1
1
1
1.02962
1.74307
2.17376
2.21593
2.20816
2.20238
2.19661
2.19015
2.1827
2.17419
2.16457
1
1
1
1
1
1
1
1
1
1
1
1
1
1
1
1
1
1
1
1
1
1
1
1
1
1
1
1
1
1
1
1
1
1
1
1
1
1.0003
1.1952
1.98219
2.20458
2.19597
2.19049
2.18463
2.17827
2.17121
2.16338
2.15469
1
1
1
1
1
1
1
1
1
1
1
1
1
1
1
1
1
1
1
1
1
1
1
1
1
1
1
1
1
1
1
1
1
1
1
1
1
1
1.00833
1.50739
2.08907
2.18349
2.17653
2.17165
2.16614
2.15971
2.15233
2.14413
1
1
1
1
1
1
1
1
1
1
1
1
1
1
1
1
1
1
1
1
1
1
1
1
1
1
1
1
1
1
1
1
1
1
1
1
1
1
1.00006
1.07391
1.82024
2.15094
2.17088
2.16412
2.15721
2.15011
2.14261
2.13459
1
1
1
1
1
1
1
1
1
1
1
1
1
1
1
1
1
1
1
1
1
1
1
1
1
1
1
1
1
1
1
1
1
1
1
1
1
1
1
1.0014
1.28084
1.97978
2.15614
2.15044
2.14436
2.13797
2.13111
2.12388
1
1
1
1
1
1
1
1
1
1
1
1
1
1
1
1
1
1
1
1
1
1
1
1
1
1
1
1
1
1
1
1
1
1
1
1
1
1
1
1.00001
1.01842
1.55697
2.06259
2.14044
2.13249
2.12634
2.12064
2.1143
1
1
1
1
1
1
1
1
1
1
1
1
1
1
1
1
1
1
1
1
1
1
1
1
1
1
1
1
1
1
1
1
1
1
1
1
1
1
1
1
1.00018
1.09781
1.80774
2.10389
2.12774
2.11982
2.11269
2.10576
1
1
1
1
1
1
1
1
1
1
1
1
1
1
1
1
1
1
1
1
1
1
1
1
1
1
1
1
1
1
1
1
1
1
1
1
1
1
1
1
1
1.00242
1.28686
1.93494
2.11109
2.10843
2.10217
2.09568
1
1
1
1
1
1
1
1
1
1
1
1
1
1
1
1
1
1
1
1
1
1
1
1
1
1
1
1
1
1
1
1
1
1
1
1
1
1
1
1
1
1.00001
1.01985
1.51347
2.01182
2.09772
2.09146
2.08458
1
1
1
1
1
1
1
1
1
1
1
1
1
1
1
1
1
1
1
1
1
1
1
1
1
1
1
1
1
1
1
1
1
1
1
1
1
1
1
1
1
1
1.00022
1.08319
1.72701
2.04693
2.08704
2.07805
1
1
1
1
1
1
1
1
1
1
1
1
1
1
1
1
1
1
1
1
1
1
1
1
1
1
1
1
1
1
1
1
1
1
1
1
1
1
1
1
1
1
1
1.00194
1.2216
1.85741
2.06155
2.07076
1
1
1
1
1
1
1
1
1
1
1
1
1
1
1
1
1
1
1
1
1
1
1
1
1
1
1
1
1
1
1
1
1
1
1
1
1
1
1
1
1
1
1
1.00001
1.01189
1.40203
1.93267
2.05628
1
1
1
1
1
1
1
1
1
1
1
1
1
1
1
1
1
1
1
1
1
1
1
1
1
1
1
1
1
1
1
1
1
1
1
1
1
1
1
1
1
1
1
1
1.00011
1.04636
1.57955
1.98235
1
1
1
1
1
1
1
1
1
1
1
1
1
1
1
1
1
1
1
1
1
1
1
1
1
1
1
1
1
1
1
1
1
1
1
1
1
1
1
1
1
1
1
1
1
1.0008
1.12371
1.72903
1
1
1
1
1
1
1
1
1
1
1
1
1
1
1
1
1
1
1
1
1
1
1
1
1
1
1
1
1
1
1
1
1
1
1
1
1
1
1
1
1
1
1
1
1
1
1.00409
1.24568
1
1
1
1
1
1
1
1
1
1
1
1
1
1
1
1
1
1
1
1
1
1
1
1
1
1
1
1
1
1
1
1
1
1
1
1
1
1
1
1
1
1
1
1
1
1
1.00003
1.01553
1
1
1
1
1
1
1
1
1
1
1
1
1
1
1
1
1
1
1
1
1
1
1
1
1
1
1
1
1
1
1
1
1
1
1
1
1
1
1
1
1
1
1
1
1
1
1
1.00017
1
1
1
1
1
1
1
1
1
1
1
1
1
1
1
1
1
1
1
1
1
1
1
1
1
1
1
1
1
1
1
1
1
1
1
1
1
1
1
1
1
1
1
1
1
1
1
1
1
1
1
1
1
1
1
1
1
1
1
1
1
1
1
1
1
1
1
1
1
1
1
1
1
1
1
1
1
1
1
1
1
1
1
1
1
1
1
1
1
1
1
1
1
1
1
1
1
1
1
1
1
1
1
1
1
1
1
1
1
1
1
1
1
1
1
1
1
1
1
1
1
1
1
1
1
1
1
1
1
1
1
1
1
1
1
1
1
1
1
1
1
1
1
1
1
1
1
1
1
1
1
1
1
1
1
1
1
1
1
1
1
1
1
1
1
1
1
1
1
1
1
1
1
1
1
1
1
1
1
1
1
1
1
1
1
1
1
1
1
1
1
1
1
1
1
1
1
1
1
1
1
1
1
1
1
1
1
1
1
1
1
1
1
1
1
1
1
1
1
1
1
1
1
1
1
1
1
1
1
1
1
1
1
1
1
1
1
1
1
1
1
1
1
1
1
1
1
1
1
1
1
1
1
1
1
1
1
1
1
1
1
1
1
1
1
1
1
1
1
1
1
1
1
1
1
1
1
1
1
1
1
1
1
1
1
1
1
1
1
1
1
1
1
1
1
1
1
1
1
1
1
1
1
1
1
1
1
1
1
1
1
1
1
1
1
1
1
1
1
1
1
1
1
1
1
1
1
1
1
1
1
1
1
1
1
1
1
1
1
1
1
1
1
1
1
1
1
1
1
1
1
1
1
1
1
1
1
1
1
1
1
1
1
1
1
1
1
1
1
1
1
1
1
1
1
1
1
1
1
1
1
1
1
1
1
1
1
1
1
1
1
1
1
1
1
1
1
1
1
1
1
1
1
1
1
1
1
1
1
1
1
1
1
1
1
1
1
1
1
1
1
1
1
1
1
1
1
1
1
1
1
1
1
1
1
1
1
1
1
1
1
1
1
1
1
1
1
1
1
1
1
1
1
1
1
1
1
1
1
1
1
1
1
1
1
1
1
1
1
1
1
1
1
1
1
1
1
1
1
1
1
1
1
1
1
1
1
1
1
1
1
1
1
1
1
1
1
1
1
1
1
1
1
1
1
1
1
1
1
1
1
1
1
1
1
1
1
1
1
1
1
1
1
1
1
1
1
1
1
1
1
1
1
1
1
1
1
1
1
1
1
1
1
1
1
1
1
1
1
1
1
1
1
1
1
1
1
1
1
1
1
1
1
1
1
1
1
1
1
1
1
1
1
1
1
1
1
1
1
1
1
1
1
1
1
1
1
1
1
1
1
1
1
1
1
1
1
1
1
1
1
1
1
1
1
1
1
1
1
1
1
1
1
1
1
1
1
1
1
1
1
1
1
1
1
1
1
1
1
1
1
1
1
1
1
1
1
1
1
1
1
1
1
1
1
1
1
1
1
1
1
1
1
1
1
1
1
1
1
1
1
1
1
1
1
1
1
1
1
1
1
1
1
1
1
1
1
1
1
1
1
1
1
1
1
1
1
1
1
1
1
1
1
1
1
1
1
1
1
1
1
1
1
1
1
1
1
1
1
1
1
1
1
1
1
1
1
1
1
1
1
1
1
1
1
1
1
1
1
1
1
1
1
1
1
1
1
1
1
1
1
1
1
1
1
1
1
1
1
1
1
1
1
1
1
1
1
1
1
1
1
1
1
1
1
1
1
1
1.57291
0.942597
0.545563
0.711555
0.887476
1.06534
1.13707
1.22588
1.30773
1.30702
1.30467
1.3199
1.39674
1.54123
1.63228
1.64458
1.62124
1.59086
1.59052
1.6078
1.65108
1.67859
1.66281
1.61995
1.60893
1.61738
1.63279
1.65156
1.65608
1.65318
1.64678
1.64034
1.63603
1.63767
1.65125
1.67131
1.68586
1.68919
1.68804
1.68283
1.67976
1.68134
1.68911
1.69555
1.69565
1.69284
1.68678
1.68309
1.68269
1.68371
1.68667
1.68967
1.69036
1.68857
1.68451
1.67956
1.67501
1.67331
1.67273
1.6726
1.67357
1.67617
1.67725
1.67582
1.67264
1.66995
1.6693
1.66964
1.67038
1.67059
1.67384
2.4028
2.91012
2.87386
2.84496
2.82825
2.81286
2.79436
2.7716
2.74743
2.72596
2.70944
2.697
2.68633
2.67556
2.66327
2.64898
2.63358
2.61885
2.60642
2.59524
2.58285
2.57014
2.55726
2.54421
2.53119
2.51946
2.51223
2.50673
2.49549
2.48416
2.47274
2.46065
2.45092
2.44202
2.43537
2.43288
2.42885
2.4186
2.40879
2.39667
2.38295
2.37262
2.36326
2.35524
2.3503
2.34162
2.33083
2.32043
2.30932
2.29961
2.29297
2.28744
2.2839
2.28295
2.27999
2.27406
2.26671
2.25404
2.23779
2.22729
2.22061
2.21502
2.21308
2.21203
2.206
2.20036
2.19476
2.18785
2.18104
2.17692
2.17418
2.17181
2.16867
2.16385
2.15534
2.14455
2.1369
2.13195
2.12743
2.12281
2.11764
2.11187
2.10479
2.09745
2.09204
2.08809
2.08475
2.08138
2.07707
2.07058
2.06278
2.05702
2.05308
2.05007
2.0481
2.04744
2.04676
2.04506
2.04187
2.03495
2.02348
2.01319
2.00736
2.00364
2.00049
1.99828
1.99551
1.9919
1.98668
1.97798
1.96942
1.96488
1.96169
1.95891
1.95733
1.95499
1.95061
1.94488
1.9353
1.9219
1.90677
1.79863
1.46764
1.27167
1.12586
1.01551
1.02983
1.05059
1.06678
1.06243
1.06405
1.0856
1.11578
1.17628
1.2602
1.33207
1.36817
1.38963
1.41053
1.42611
1.44908
1.49305
1.54496
1.55148
1.54476
1.54872
1.56594
1.5826
1.60087
1.60196
1.60008
1.59808
1.59819
1.59931
1.60462
1.61891
1.63567
1.64772
1.65079
1.65025
1.64912
1.64915
1.65199
1.66035
1.66874
1.6708
1.66995
1.66651
1.66352
1.66261
1.66263
1.6632
1.66402
1.66461
1.66432
1.66302
1.66178
1.66024
1.65866
1.65744
1.65664
1.65701
1.65916
1.66036
1.65966
1.65796
1.65669
1.65597
1.65595
1.65629
1.65844
1.67869
2.26485
2.83058
2.80669
2.77602
2.76441
2.75614
2.74237
2.72357
2.70364
2.68659
2.67358
2.66333
2.65423
2.64507
2.63476
2.62259
2.60867
2.59416
2.58052
2.56843
2.5585
2.55016
2.5416
2.53149
2.51954
2.50694
2.49494
2.48468
2.47694
2.46988
2.46266
2.45506
2.44534
2.43525
2.42623
2.41825
2.41085
2.40382
2.39609
2.38785
2.37876
2.36807
2.35772
2.34823
2.33996
2.33265
2.32439
2.31594
2.30788
2.29884
2.28978
2.28281
2.27728
2.27275
2.26789
2.26291
2.25703
2.2488
2.23946
2.22911
2.21979
2.21314
2.20853
2.20503
2.20086
2.19599
2.19108
2.18561
2.1794
2.17356
2.169
2.16545
2.16227
2.15857
2.15283
2.14537
2.13703
2.12949
2.1237
2.1187
2.11411
2.10916
2.10327
2.09716
2.09159
2.08658
2.08212
2.07804
2.07373
2.06827
2.06162
2.05568
2.05123
2.04779
2.04514
2.04287
2.04066
2.03875
2.03608
2.03126
2.02407
2.01605
2.00849
2.00276
1.99879
1.99544
1.99207
1.98831
1.9839
1.97797
1.97075
1.96471
1.9606
1.95711
1.95338
1.94944
1.94515
1.9397
1.93223
1.92349
1.91091
1.90431
1.70098
1.55841
1.39483
1.23998
1.19878
1.16975
1.12513
1.08483
1.07751
1.06597
1.06977
1.09389
1.12346
1.1465
1.16721
1.18452
1.2098
1.24404
1.27926
1.31764
1.35999
1.39858
1.42896
1.45771
1.48766
1.50447
1.51715
1.52083
1.52265
1.52532
1.53453
1.54637
1.55576
1.5648
1.5714
1.57841
1.58064
1.58007
1.58112
1.58395
1.58959
1.59883
1.60855
1.61374
1.61481
1.6149
1.61527
1.61698
1.61863
1.61938
1.61891
1.61738
1.6167
1.61694
1.61831
1.61888
1.6183
1.61679
1.61613
1.61688
1.62007
1.62278
1.62309
1.6229
1.62224
1.62015
1.61941
1.62161
1.64467
1.75234
2.05359
2.56745
2.66531
2.65509
2.6449
2.64394
2.63791
2.62823
2.61652
2.60462
2.59467
2.58639
2.5792
2.57245
2.56557
2.55814
2.55022
2.54073
2.52862
2.51485
2.50256
2.49365
2.4882
2.48441
2.48007
2.47274
2.46114
2.44722
2.4349
2.42623
2.42224
2.41995
2.41682
2.41221
2.40357
2.39029
2.37723
2.36765
2.36068
2.35618
2.35131
2.34485
2.33734
2.32761
2.3166
2.30731
2.29977
2.29452
2.29025
2.28509
2.27935
2.27214
2.26243
2.25224
2.24516
2.23906
2.2329
2.22888
2.22495
2.2196
2.21292
2.20462
2.19644
2.19023
2.18545
2.18177
2.17819
2.17467
2.1705
2.16424
2.15657
2.1508
2.14668
2.14283
2.13989
2.13653
2.13203
2.12487
2.11581
2.1079
2.10166
2.0965
2.09259
2.0889
2.08535
2.08114
2.07548
2.06902
2.06328
2.05842
2.05371
2.04905
2.04446
2.03999
2.03581
2.03211
2.02882
2.02533
2.02178
2.01863
2.01625
2.0134
2.00896
2.00164
1.99348
1.98749
1.98337
1.97953
1.97531
1.97108
1.96669
1.96166
1.95599
1.95026
1.94458
1.9386
1.93259
1.92689
1.92145
1.91745
1.91138
1.9829
1.81875
1.69812
1.56423
1.43142
1.37114
1.31256
1.25088
1.21227
1.19907
1.17183
1.14297
1.1296
1.11855
1.11331
1.11674
1.11849
1.12323
1.13898
1.16984
1.2073
1.23714
1.27084
1.31489
1.35546
1.39234
1.40975
1.41664
1.42722
1.44564
1.45952
1.47631
1.49325
1.50261
1.50709
1.51137
1.51635
1.51954
1.51977
1.51921
1.52152
1.52658
1.53223
1.53949
1.54373
1.54604
1.54866
1.55276
1.55819
1.56213
1.56417
1.56444
1.56445
1.56475
1.56524
1.56648
1.56701
1.56642
1.56506
1.56496
1.56607
1.56845
1.57188
1.57525
1.57643
1.57624
1.57458
1.57612
1.5947
1.70939
1.93103
2.00064
2.198
2.42193
2.51008
2.54553
2.53774
2.52429
2.51865
2.51643
2.51174
2.50589
2.49835
2.49158
2.48644
2.48129
2.47595
2.47114
2.46588
2.45862
2.44948
2.43882
2.42869
2.42236
2.4187
2.4167
2.41392
2.40764
2.39851
2.38721
2.37737
2.37139
2.36883
2.36758
2.36551
2.36126
2.35306
2.34028
2.32761
2.31906
2.31295
2.3086
2.3042
2.29882
2.29186
2.28263
2.27332
2.26637
2.26099
2.25719
2.25452
2.25091
2.246
2.23925
2.22921
2.2176
2.20896
2.20421
2.20103
2.19884
2.19599
2.19135
2.18535
2.1776
2.16961
2.16357
2.15954
2.15647
2.15368
2.15048
2.14592
2.13854
2.12946
2.12318
2.12019
2.11817
2.11645
2.11376
2.10919
2.10099
2.09031
2.08283
2.07814
2.07433
2.07124
2.06848
2.06547
2.06133
2.05439
2.04586
2.04038
2.03687
2.0334
2.02985
2.02599
2.02153
2.0164
2.01086
2.00569
2.00205
2.00064
1.99998
2
1.99831
1.9941
1.98702
1.97689
1.96866
1.96399
1.96071
1.95788
1.95498
1.95153
1.94656
1.93927
1.93089
1.92357
1.91746
1.91225
1.90872
1.90734
1.90371
2.04917
1.90033
1.78819
1.68327
1.57839
1.50686
1.44053
1.35734
1.32186
1.29512
1.26498
1.23964
1.21819
1.19113
1.17642
1.16841
1.15531
1.14662
1.14923
1.16319
1.16787
1.17149
1.17798
1.19655
1.22328
1.25827
1.29758
1.32649
1.35491
1.38969
1.41049
1.42519
1.43918
1.45062
1.45789
1.46409
1.47266
1.48311
1.48711
1.48796
1.4894
1.49288
1.49728
1.50336
1.50643
1.50776
1.51009
1.51503
1.52345
1.52863
1.529
1.52874
1.52739
1.52442
1.52277
1.52321
1.52571
1.52898
1.53263
1.53533
1.53662
1.53698
1.53691
1.53678
1.53613
1.53515
1.53848
1.55493
1.6653
1.86672
2.01243
2.0132
2.02497
2.14246
2.33676
2.44022
2.47338
2.47293
2.46616
2.45902
2.45278
2.44646
2.43974
2.43384
2.42983
2.42438
2.41899
2.4124
2.40605
2.40075
2.39453
2.38739
2.37961
2.37195
2.36669
2.3631
2.35988
2.35625
2.35089
2.34392
2.33687
2.33071
2.32584
2.32219
2.31908
2.31553
2.30999
2.3011
2.29013
2.28094
2.27464
2.26979
2.26534
2.26059
2.25458
2.24713
2.23992
2.23403
2.22904
2.22477
2.22101
2.21695
2.21257
2.20727
2.20026
2.19158
2.18335
2.17794
2.17435
2.17142
2.16771
2.16321
2.15775
2.15124
2.14485
2.13939
2.13505
2.13171
2.12866
2.12523
2.1207
2.11426
2.10625
2.09955
2.09609
2.09393
2.09172
2.08891
2.08462
2.07722
2.06783
2.061
2.05658
2.05288
2.04955
2.04653
2.04357
2.03995
2.03421
2.02588
2.01854
2.0143
2.01106
2.00787
2.00447
2.00039
1.99525
1.98922
1.98364
1.98081
1.97981
1.97913
1.97866
1.97791
1.97565
1.97176
1.9645
1.95368
1.9454
1.94152
1.93897
1.93663
1.9339
1.93026
1.92427
1.91511
1.90602
1.9001
1.89668
1.89405
1.89358
1.89037
2.0969
1.97792
1.87023
1.76599
1.68225
1.6099
1.54321
1.46613
1.42054
1.3871
1.3429
1.31936
1.30464
1.28247
1.25549
1.24443
1.2255
1.19657
1.18702
1.1866
1.17886
1.1727
1.17533
1.17288
1.1701
1.17416
1.18862
1.21112
1.24177
1.28882
1.33782
1.36864
1.38936
1.40883
1.42432
1.43477
1.44692
1.461
1.46853
1.47057
1.4713
1.47285
1.47572
1.48114
1.4857
1.48848
1.49172
1.49556
1.50284
1.50853
1.50877
1.50862
1.50651
1.5041
1.50344
1.50413
1.50754
1.51418
1.51943
1.52044
1.52034
1.51831
1.51451
1.51198
1.51164
1.51412
1.53307
1.63
1.85679
1.97695
2.01664
2.01604
2.00654
2.0132
2.11192
2.29189
2.40563
2.44411
2.44841
2.43794
2.4275
2.41911
2.41369
2.40986
2.40656
2.40047
2.39392
2.38585
2.37866
2.37349
2.3679
2.36122
2.35372
2.34538
2.33808
2.33293
2.3289
2.32537
2.32196
2.31747
2.31154
2.30491
2.29834
2.29339
2.28951
2.28585
2.28173
2.27634
2.26883
2.25934
2.25011
2.24295
2.23707
2.2314
2.22579
2.22045
2.21517
2.20951
2.20363
2.19826
2.19345
2.18894
2.18462
2.18066
2.1771
2.17321
2.168
2.16107
2.15457
2.14978
2.14491
2.13918
2.13314
2.12779
2.12313
2.11844
2.11373
2.10978
2.10621
2.10222
2.0977
2.09273
2.08752
2.08183
2.07588
2.07119
2.06776
2.06413
2.0592
2.05292
2.04676
2.04116
2.03578
2.03131
2.02776
2.02453
2.02136
2.01776
2.01295
2.00641
1.99887
1.9926
1.98836
1.98472
1.98068
1.976
1.97117
1.96686
1.9636
1.96092
1.95845
1.95674
1.95551
1.95437
1.95277
1.95005
1.94545
1.93789
1.92929
1.92253
1.91806
1.91499
1.91213
1.90859
1.90343
1.89661
1.88985
1.88468
1.881
1.87812
1.87654
1.87236
2.13395
2.03641
1.93761
1.84171
1.76829
1.69594
1.62244
1.55559
1.51348
1.4739
1.43168
1.39491
1.37601
1.35359
1.32241
1.3001
1.28385
1.2641
1.24164
1.23606
1.23295
1.22271
1.21063
1.19769
1.18517
1.18443
1.18611
1.1868
1.19116
1.20418
1.22904
1.26103
1.29582
1.33223
1.36892
1.39514
1.41287
1.43273
1.45122
1.46039
1.46329
1.46402
1.46526
1.46964
1.47644
1.48245
1.48706
1.4899
1.49387
1.49716
1.49843
1.4987
1.49758
1.49685
1.49719
1.49853
1.50235
1.50749
1.51085
1.51189
1.51185
1.50962
1.50508
1.50287
1.50375
1.52113
1.63762
1.83972
1.9856
2.00376
2.00874
2.00824
2.00438
1.99859
2.00498
2.08338
2.26434
2.39978
2.4345
2.43381
2.42342
2.41404
2.40789
2.4025
2.39714
2.39109
2.38531
2.37933
2.37209
2.36425
2.35706
2.35015
2.34299
2.33604
2.32988
2.3247
2.31989
2.31529
2.31072
2.30548
2.29938
2.29249
2.28597
2.28053
2.27585
2.27164
2.26754
2.26319
2.25777
2.25009
2.24002
2.22937
2.2204
2.21366
2.20876
2.20454
2.19998
2.19482
2.18885
2.18224
2.17615
2.17146
2.16808
2.16558
2.16457
2.16308
2.15999
2.15435
2.14459
2.13429
2.127
2.12115
2.11603
2.11177
2.10796
2.1038
2.09852
2.09347
2.08915
2.0853
2.08189
2.07884
2.0756
2.07129
2.06497
2.05682
2.04956
2.04397
2.03899
2.03475
2.03087
2.02648
2.02113
2.01525
2.01066
2.00707
2.00346
1.99955
1.99528
1.99043
1.98425
1.97633
1.96881
1.9634
1.95871
1.95437
1.95135
1.94953
1.9478
1.94547
1.94224
1.93831
1.93489
1.93274
1.93109
1.92888
1.92483
1.91938
1.91373
1.90776
1.90109
1.8951
1.89045
1.88588
1.88124
1.87773
1.87511
1.87214
1.86837
1.86389
1.86004
1.85516
2.16424
2.08242
1.9924
1.90925
1.83857
1.77037
1.69664
1.64216
1.59335
1.54719
1.50248
1.47664
1.44915
1.42114
1.39154
1.35623
1.32993
1.31946
1.30501
1.28696
1.2821
1.27267
1.2573
1.2447
1.22631
1.21318
1.20722
1.20019
1.19947
1.20335
1.20656
1.20869
1.21461
1.22784
1.25135
1.28706
1.32643
1.3643
1.3972
1.42364
1.44656
1.4592
1.46208
1.46838
1.47559
1.48145
1.48802
1.49172
1.49269
1.49145
1.48942
1.48908
1.49051
1.49275
1.49534
1.50004
1.50449
1.50487
1.50451
1.50479
1.50487
1.50302
1.50102
1.50149
1.51509
1.63
1.85017
1.97776
2.01507
2.01655
2.01218
2.0077
2.00234
1.99785
1.99185
1.99483
2.06082
2.24444
2.38199
2.42899
2.42686
2.41962
2.41016
2.401
2.39421
2.38895
2.38405
2.37911
2.37195
2.3623
2.35121
2.34276
2.3374
2.33335
2.32987
2.32588
2.32034
2.31295
2.30428
2.29644
2.29076
2.28579
2.28055
2.2752
2.26987
2.26481
2.26025
2.2558
2.2507
2.2443
2.23646
2.22692
2.21641
2.20783
2.20192
2.19695
2.1923
2.18767
2.18264
2.17668
2.17039
2.16553
2.16255
2.16145
2.16131
2.15946
2.1558
2.14997
2.14015
2.12747
2.11764
2.11146
2.10686
2.10294
2.09926
2.09489
2.08853
2.08094
2.07689
2.0747
2.07274
2.07124
2.06908
2.06508
2.05931
2.05015
2.03928
2.03134
2.02675
2.0235
2.02005
2.01603
2.0114
2.00561
1.99937
1.99461
1.9905
1.98675
1.9835
1.98028
1.97586
1.96772
1.95558
1.94631
1.94194
1.93967
1.93802
1.93701
1.93577
1.93377
1.93123
1.92762
1.9229
1.91798
1.91367
1.90929
1.90534
1.90242
1.8997
1.89614
1.89002
1.88057
1.87218
1.86758
1.86508
1.86329
1.86208
1.8605
1.85783
1.85407
1.84879
1.83881
2.18749
2.11607
2.03647
1.96605
1.90015
1.83157
1.76542
1.71537
1.6654
1.61824
1.574
1.54353
1.51093
1.47603
1.44888
1.421
1.38479
1.36726
1.35788
1.34057
1.32688
1.31793
1.30147
1.28828
1.27729
1.25935
1.24853
1.24252
1.23591
1.23029
1.22454
1.21753
1.21405
1.2141
1.21544
1.22053
1.23327
1.2609
1.30123
1.33957
1.37488
1.4072
1.43246
1.45146
1.46448
1.47539
1.48636
1.49106
1.49269
1.49312
1.48923
1.487
1.48833
1.49056
1.49598
1.50451
1.50792
1.50785
1.50544
1.50103
1.49792
1.49673
1.49798
1.51419
1.61434
1.85603
1.97841
2.01022
2.01696
2.01326
2.00891
2.00469
2.00092
1.99698
1.99267
1.98884
1.99029
2.04253
2.20353
2.36296
2.41621
2.42539
2.41584
2.40561
2.39541
2.38883
2.38409
2.37918
2.37188
2.36238
2.34973
2.33968
2.33436
2.3306
2.32888
2.32615
2.32076
2.31317
2.30276
2.29316
2.2866
2.28128
2.276
2.2705
2.26451
2.25802
2.25142
2.2463
2.24228
2.23838
2.23322
2.22661
2.21941
2.21121
2.20242
2.19529
2.18989
2.1851
2.18051
2.17605
2.17145
2.16627
2.16034
2.15538
2.15238
2.15092
2.1487
2.14409
2.1366
2.12696
2.11734
2.10916
2.1025
2.09691
2.09206
2.08749
2.08203
2.07559
2.07117
2.06879
2.06747
2.06724
2.06525
2.06096
2.05496
2.04639
2.03664
2.02803
2.02171
2.01735
2.01393
2.01052
2.00638
2.00055
1.9925
1.98615
1.9829
1.98074
1.9782
1.97483
1.97014
1.96182
1.94941
1.9389
1.934
1.93141
1.92976
1.92883
1.92804
1.92684
1.92475
1.92167
1.91644
1.90744
1.89784
1.89345
1.89225
1.89133
1.88953
1.88648
1.88118
1.87262
1.86263
1.85737
1.85518
1.85381
1.85354
1.85305
1.85102
1.84756
1.84129
1.8272
2.20469
2.14014
2.07262
2.01156
1.94968
1.88239
1.8282
1.77717
1.7283
1.67674
1.64087
1.60472
1.56979
1.53053
1.497
1.47107
1.44183
1.42032
1.41015
1.39583
1.37663
1.36252
1.34735
1.32899
1.31956
1.30796
1.29021
1.27946
1.2722
1.26571
1.25949
1.24759
1.23149
1.22527
1.2252
1.22511
1.22736
1.23302
1.24033
1.24989
1.26659
1.29432
1.33189
1.36837
1.40465
1.43428
1.45971
1.48111
1.48738
1.4904
1.49062
1.48727
1.48687
1.48905
1.49707
1.50529
1.50738
1.50749
1.50588
1.49892
1.49283
1.49283
1.51018
1.61918
1.83173
1.99635
2.00642
2.0044
2.00308
2.00541
2.00602
2.00254
1.9983
1.9939
1.9906
1.98723
1.98371
1.98479
2.01934
2.16418
2.32521
2.40205
2.41518
2.40837
2.39676
2.38878
2.38305
2.377
2.36922
2.3599
2.3486
2.33757
2.33107
2.32698
2.32462
2.32289
2.31801
2.31179
2.30331
2.29193
2.28284
2.27708
2.272
2.26651
2.26039
2.25386
2.24666
2.23923
2.23341
2.22921
2.22651
2.22437
2.2198
2.21437
2.20729
2.19879
2.19048
2.18447
2.17987
2.17553
2.17102
2.16564
2.15893
2.15205
2.14597
2.14197
2.13874
2.13523
2.13101
2.12523
2.11797
2.11036
2.10224
2.09482
2.08882
2.08398
2.07984
2.07572
2.07057
2.06477
2.06012
2.05676
2.05366
2.05056
2.04679
2.04183
2.03572
2.02964
2.02338
2.01672
2.01062
2.00521
2.00001
1.99493
1.98924
1.98275
1.97655
1.97247
1.96965
1.96664
1.96244
1.95614
1.94794
1.94048
1.93386
1.92861
1.92555
1.92389
1.92405
1.92377
1.92113
1.9175
1.91132
1.901
1.89096
1.8853
1.88105
1.87816
1.8766
1.87495
1.87256
1.86819
1.86194
1.85548
1.85139
1.84931
1.84813
1.84729
1.845
1.8408
1.8344
1.82154
2.2158
2.15784
2.10107
2.04622
1.98634
1.92783
1.8791
1.82962
1.77876
1.73328
1.6961
1.65668
1.61895
1.58197
1.54999
1.52132
1.49428
1.47216
1.45562
1.44119
1.42558
1.40908
1.39033
1.36601
1.35072
1.34324
1.33535