/*--------------------------------*- C++ -*----------------------------------*\
  =========                 |
  \\      /  F ield         | OpenFOAM: The Open Source CFD Toolbox
   \\    /   O peration     | Website:  https://openfoam.org
    \\  /    A nd           | Version:  7
     \\/     M anipulation  |
\*---------------------------------------------------------------------------*/
FoamFile
{
    version     2.0;
    format      ascii;
    class       volVectorField;
    location    "2.7";
    object      U;
}
// * * * * * * * * * * * * * * * * * * * * * * * * * * * * * * * * * * * * * //

dimensions      [0 1 -1 0 0 0 0];

internalField   nonuniform List<vector> 
16128
(
(3 -6.85055e-19 0)
(3 -1.08039e-16 0)
(3 -4.91767e-16 0)
(3 -3.17929e-16 0)
(3 -3.36189e-17 0)
(3 3.55176e-16 0)
(3 4.89813e-16 0)
(3 5.43933e-16 0)
(3 1.03297e-15 0)
(3 1.58988e-15 0)
(3 1.06596e-15 0)
(3 3.26121e-16 0)
(3 3.05567e-16 0)
(3 5.8639e-16 0)
(3 3.63486e-16 0)
(3 -5.77275e-16 0)
(3 -5.93829e-16 0)
(3 -4.82228e-16 0)
(3 -3.63432e-16 0)
(3 -1.17486e-16 0)
(3 2.03323e-16 0)
(3 -1.68234e-16 0)
(3 -8.3242e-16 0)
(3 3.38985e-16 0)
(1.85968 0.00714007 0)
(0.800672 0.00718354 0)
(0.722085 0.0140025 0)
(0.691623 0.0138738 0)
(0.659596 0.0137748 0)
(0.629508 0.0136616 0)
(0.599824 0.0137171 0)
(0.570154 0.0140681 0)
(0.539864 0.0145955 0)
(0.508915 0.0150368 0)
(0.477533 0.0152143 0)
(0.445987 0.015196 0)
(0.41431 0.0152514 0)
(0.38242 0.0154612 0)
(0.350284 0.0156558 0)
(0.317927 0.0158855 0)
(0.285256 0.0162015 0)
(0.252103 0.016602 0)
(0.218007 0.0171766 0)
(0.182462 0.0179808 0)
(0.145151 0.0189545 0)
(0.105762 0.0199862 0)
(0.0645876 0.0206388 0)
(0.0223225 0.0214754 0)
(3 -1.81756e-16 0)
(3 -2.3819e-16 0)
(3 -2.15289e-16 0)
(3 5.86417e-18 0)
(3 2.10622e-17 0)
(3 3.79474e-16 0)
(3 7.38465e-17 0)
(3 -1.93606e-16 0)
(3 8.40227e-16 0)
(3 1.38233e-15 0)
(3 1.42069e-15 0)
(3 2.19444e-16 0)
(3 -5.36038e-16 0)
(3 -1.47491e-16 0)
(3 -7.05806e-16 0)
(3 -1.55135e-15 0)
(3 -1.24228e-15 0)
(3 -7.5985e-16 0)
(3 -6.31225e-17 0)
(3 8.20079e-17 0)
(3 -1.18076e-16 0)
(3 -9.85182e-16 0)
(3 -1.24476e-15 0)
(3 2.72851e-16 0)
(1.87858 0.0354452 0)
(0.796429 0.0330972 0)
(0.71225 0.0419493 0)
(0.681095 0.0388465 0)
(0.649031 0.0380019 0)
(0.618994 0.0376406 0)
(0.589351 0.0379736 0)
(0.559707 0.0392534 0)
(0.529472 0.041066 0)
(0.498637 0.0425895 0)
(0.467451 0.0432942 0)
(0.436211 0.0434073 0)
(0.404962 0.0438181 0)
(0.373571 0.0447965 0)
(0.341906 0.0457521 0)
(0.309968 0.0467766 0)
(0.277732 0.0479927 0)
(0.245173 0.0493951 0)
(0.211961 0.0512858 0)
(0.177622 0.0538707 0)
(0.141718 0.0569697 0)
(0.103722 0.0602927 0)
(0.0636433 0.0625481 0)
(0.0221868 0.0654186 0)
(3 -3.81005e-17 0)
(3 -5.31219e-17 0)
(3 -7.86407e-17 0)
(3 -6.2423e-16 0)
(3 -6.09977e-16 0)
(3 -2.96884e-16 0)
(3 -4.45567e-17 0)
(3 6.92222e-18 0)
(3 9.77486e-17 0)
(3 7.10141e-16 0)
(3 1.11222e-15 0)
(3 1.1554e-15 0)
(3 1.23271e-15 0)
(3 9.14704e-16 0)
(3 6.20997e-16 0)
(3 4.56072e-16 0)
(3 1.0141e-16 0)
(3 -3.70371e-16 0)
(3 -3.43526e-16 0)
(3 1.9171e-16 0)
(3 1.67965e-16 0)
(3 -6.05132e-16 0)
(3 -6.91006e-16 0)
(3 -1.43204e-15 0)
(1.94003 0.06431 0)
(0.804524 0.0606379 0)
(0.713414 0.0719449 0)
(0.680873 0.0669575 0)
(0.647514 0.0654166 0)
(0.616589 0.0646543 0)
(0.586275 0.0650348 0)
(0.556114 0.0669501 0)
(0.525489 0.06972 0)
(0.494312 0.0720196 0)
(0.462783 0.0729934 0)
(0.431206 0.0729719 0)
(0.399666 0.0734269 0)
(0.368039 0.0748938 0)
(0.33607 0.0763887 0)
(0.303691 0.0779563 0)
(0.270926 0.0797191 0)
(0.237916 0.0816411 0)
(0.204576 0.0842962 0)
(0.170651 0.0881943 0)
(0.135761 0.0931364 0)
(0.0992778 0.0987186 0)
(0.0608953 0.102739 0)
(0.0213831 0.107926 0)
(3 1.01186e-16 0)
(3 7.65788e-17 0)
(3 -2.06797e-16 0)
(3 -2.35239e-16 0)
(3 1.23729e-16 0)
(3 3.85606e-16 0)
(3 1.17199e-15 0)
(3 1.17489e-15 0)
(3 6.9434e-16 0)
(3 9.25673e-16 0)
(3 1.20649e-15 0)
(3 1.31492e-15 0)
(3 1.70612e-15 0)
(3 1.37276e-15 0)
(3 1.02475e-15 0)
(3 2.16764e-16 0)
(3 -6.61821e-16 0)
(3 -9.33697e-16 0)
(3 -1.18898e-15 0)
(3 -1.0339e-15 0)
(3 -5.48469e-16 0)
(3 -1.52828e-16 0)
(3 -3.33433e-16 0)
(3 1.81455e-16 0)
(2.03394 0.0893646 0)
(0.817509 0.0888664 0)
(0.718183 0.101548 0)
(0.686913 0.0947909 0)
(0.654201 0.092297 0)
(0.623638 0.091111 0)
(0.593332 0.0916634 0)
(0.562989 0.0943629 0)
(0.532084 0.0982373 0)
(0.500507 0.101511 0)
(0.468413 0.103034 0)
(0.436115 0.103157 0)
(0.403781 0.103849 0)
(0.371359 0.105977 0)
(0.338494 0.108239 0)
(0.30502 0.110568 0)
(0.270969 0.112997 0)
(0.236587 0.115359 0)
(0.202006 0.118405 0)
(0.167226 0.122982 0)
(0.132052 0.128983 0)
(0.0959605 0.13617 0)
(0.0584989 0.141572 0)
(0.0206194 0.148852 0)
(3 -9.93529e-17 0)
(3 -1.72822e-16 0)
(3 3.08026e-16 0)
(3 7.494e-16 0)
(3 7.00404e-16 0)
(3 7.81689e-16 0)
(3 5.19869e-16 0)
(3 -3.01769e-17 0)
(3 1.47176e-16 0)
(3 3.09143e-16 0)
(3 8.9323e-16 0)
(3 9.66394e-16 0)
(3 6.12794e-16 0)
(3 6.20938e-16 0)
(3 5.55652e-16 0)
(3 -9.83805e-17 0)
(3 -8.43539e-16 0)
(3 -1.43521e-15 0)
(3 -1.38116e-15 0)
(3 -1.76703e-15 0)
(3 -1.18498e-15 0)
(3 -6.22363e-16 0)
(3 -6.08587e-16 0)
(3 -1.66289e-15 0)
(2.16179 0.108231 0)
(0.838203 0.116241 0)
(0.726408 0.128484 0)
(0.697075 0.120636 0)
(0.664945 0.117903 0)
(0.634583 0.116737 0)
(0.604134 0.117717 0)
(0.573592 0.121323 0)
(0.542504 0.126369 0)
(0.510737 0.130705 0)
(0.478421 0.132938 0)
(0.445825 0.133366 0)
(0.413107 0.134368 0)
(0.380263 0.137241 0)
(0.346838 0.140457 0)
(0.312566 0.143794 0)
(0.277445 0.147152 0)
(0.241743 0.150178 0)
(0.205696 0.153707 0)
(0.169451 0.158857 0)
(0.132962 0.165523 0)
(0.0959933 0.173787 0)
(0.0580711 0.180052 0)
(0.0204975 0.188934 0)
(3 -3.61905e-17 0)
(3 -8.99364e-17 0)
(3 3.86745e-17 0)
(3 1.92085e-16 0)
(3 1.75059e-16 0)
(3 1.26669e-16 0)
(3 -1.4506e-16 0)
(3 -4.18134e-16 0)
(3 -1.04663e-17 0)
(3 -9.872e-17 0)
(3 1.88563e-16 0)
(3 4.32328e-16 0)
(3 5.01748e-16 0)
(3 7.79524e-16 0)
(3 8.91177e-16 0)
(3 8.6755e-16 0)
(3 5.06804e-16 0)
(3 -1.10341e-15 0)
(3 -1.4951e-15 0)
(3 -1.60846e-15 0)
(3 -1.49223e-15 0)
(3 -1.29449e-15 0)
(3 -5.66115e-16 0)
(3 -1.64348e-15 0)
(2.31406 0.123037 0)
(0.85951 0.1461 0)
(0.728577 0.154178 0)
(0.700388 0.146931 0)
(0.66791 0.144908 0)
(0.637195 0.14417 0)
(0.6066 0.145388 0)
(0.576624 0.14946 0)
(0.54682 0.155227 0)
(0.516645 0.160297 0)
(0.485724 0.16318 0)
(0.453933 0.164102 0)
(0.421388 0.165622 0)
(0.388343 0.169389 0)
(0.354554 0.173691 0)
(0.319859 0.178131 0)
(0.284268 0.18251 0)
(0.247953 0.186324 0)
(0.211067 0.190441 0)
(0.173727 0.196218 0)
(0.13592 0.203442 0)
(0.0976896 0.212529 0)
(0.0587272 0.219299 0)
(0.0207199 0.229341 0)
(3 6.3858e-17 0)
(3 1.18305e-16 0)
(3 2.00526e-16 0)
(3 1.27963e-16 0)
(3 1.39838e-16 0)
(3 1.44912e-16 0)
(3 2.94195e-16 0)
(3 1.37266e-15 0)
(3 8.4027e-16 0)
(3 4.67375e-16 0)
(3 -1.03392e-16 0)
(3 -3.57908e-16 0)
(3 5.6145e-17 0)
(3 2.27716e-16 0)
(3 7.67005e-16 0)
(3 5.14091e-16 0)
(3 -3.28205e-16 0)
(3 -1.00613e-15 0)
(3 -1.27361e-15 0)
(3 -8.28078e-16 0)
(3 8.88173e-18 0)
(3 6.46159e-16 0)
(3 1.16082e-15 0)
(3 6.73735e-16 0)
(2.49011 0.13233 0)
(0.892167 0.178908 0)
(0.733673 0.178047 0)
(0.707119 0.172861 0)
(0.67506 0.172436 0)
(0.64499 0.171822 0)
(0.614625 0.172766 0)
(0.584829 0.176655 0)
(0.555284 0.182758 0)
(0.525294 0.188695 0)
(0.494305 0.192855 0)
(0.462129 0.19502 0)
(0.429105 0.197454 0)
(0.395823 0.202096 0)
(0.362193 0.207295 0)
(0.327919 0.212678 0)
(0.292749 0.218097 0)
(0.256536 0.222957 0)
(0.219249 0.228048 0)
(0.180968 0.234856 0)
(0.141698 0.242905 0)
(0.101761 0.252913 0)
(0.0610096 0.260057 0)
(0.0215379 0.271004 0)
(3 5.71158e-18 0)
(3 -4.40763e-16 0)
(3 -1.09401e-16 0)
(3 2.69418e-16 0)
(3 1.61364e-16 0)
(3 4.22792e-16 0)
(3 9.76646e-16 0)
(3 9.04375e-16 0)
(3 9.34651e-16 0)
(3 4.51639e-16 0)
(3 1.6814e-16 0)
(3 -4.96195e-17 0)
(3 3.81985e-17 0)
(3 5.93385e-16 0)
(3 9.1428e-16 0)
(3 3.47801e-16 0)
(3 -6.43393e-16 0)
(3 -5.51778e-16 0)
(3 2.46202e-16 0)
(3 1.2842e-15 0)
(3 1.93313e-15 0)
(3 1.73159e-15 0)
(3 1.24946e-15 0)
(3 8.18509e-16 0)
(2.68263 0.134246 0)
(0.94201 0.212997 0)
(0.749577 0.200849 0)
(0.726118 0.197195 0)
(0.694107 0.198648 0)
(0.663856 0.199042 0)
(0.632361 0.200352 0)
(0.601082 0.204458 0)
(0.570142 0.211168 0)
(0.539025 0.218134 0)
(0.507213 0.223618 0)
(0.474374 0.226958 0)
(0.440785 0.230033 0)
(0.407063 0.235148 0)
(0.373155 0.240968 0)
(0.338658 0.2473 0)
(0.303155 0.254079 0)
(0.26632 0.260519 0)
(0.228099 0.267107 0)
(0.188607 0.275378 0)
(0.147757 0.284518 0)
(0.106172 0.295614 0)
(0.0634956 0.30303 0)
(0.0224131 0.314748 0)
(3 -6.77954e-17 0)
(3 -3.03152e-16 0)
(3 -6.35098e-16 0)
(3 -3.94452e-17 0)
(3 -4.43484e-16 0)
(3 -4.31053e-16 0)
(3 -6.50388e-16 0)
(3 -6.27142e-16 0)
(3 -3.01569e-17 0)
(3 2.0472e-16 0)
(3 5.61619e-16 0)
(3 6.88583e-16 0)
(3 1.41721e-15 0)
(3 1.74381e-15 0)
(3 1.49123e-15 0)
(3 1.08659e-15 0)
(3 8.79226e-16 0)
(3 1.22828e-15 0)
(3 2.55833e-15 0)
(3 2.33399e-15 0)
(3 1.93501e-15 0)
(3 -2.95344e-16 0)
(3 -6.17453e-16 0)
(3 -3.97206e-16 0)
(2.87313 0.103661 0)
(1.01212 0.237296 0)
(0.773735 0.21033 0)
(0.753739 0.217431 0)
(0.720945 0.222244 0)
(0.69008 0.225823 0)
(0.657503 0.228733 0)
(0.625034 0.233327 0)
(0.592978 0.240397 0)
(0.560803 0.248103 0)
(0.527939 0.254838 0)
(0.493995 0.259513 0)
(0.459205 0.263379 0)
(0.424226 0.269005 0)
(0.389148 0.275448 0)
(0.353651 0.282768 0)
(0.317294 0.290993 0)
(0.279623 0.299144 0)
(0.240467 0.307369 0)
(0.199787 0.317395 0)
(0.157134 0.328028 0)
(0.113458 0.340756 0)
(0.0679348 0.348723 0)
(0.0239961 0.361323 0)
(3 -1.02123e-16 0)
(3 -2.54819e-16 0)
(3 -1.96149e-16 0)
(3 2.10881e-16 0)
(3 -4.25462e-16 0)
(3 -1.04639e-15 0)
(3 -1.7278e-15 0)
(3 -9.03095e-16 0)
(3 -6.90633e-16 0)
(3 -5.3263e-16 0)
(3 -2.81258e-16 0)
(3 3.86379e-16 0)
(3 1.66838e-16 0)
(3 -3.3367e-16 0)
(3 -3.87437e-16 0)
(3 -1.41797e-16 0)
(3 9.47516e-16 0)
(3 1.44057e-15 0)
(3 1.83001e-15 0)
(3 1.72304e-15 0)
(3 7.2159e-16 0)
(3 -2.66842e-16 0)
(3 -7.98627e-16 0)
(3 -1.21711e-16 0)
(2.9863 0.0263765 0)
(1.0859 0.253339 0)
(0.783682 0.224471 0)
(0.771029 0.24087 0)
(0.741564 0.247989 0)
(0.713226 0.25267 0)
(0.682692 0.256161 0)
(0.651378 0.261196 0)
(0.619679 0.269197 0)
(0.587345 0.278368 0)
(0.554027 0.286779 0)
(0.519336 0.293109 0)
(0.483372 0.298091 0)
(0.446853 0.304427 0)
(0.410032 0.311566 0)
(0.372813 0.319884 0)
(0.334774 0.329609 0)
(0.295323 0.339729 0)
(0.254137 0.349997 0)
(0.211382 0.362394 0)
(0.166047 0.375022 0)
(0.120221 0.389684 0)
(0.0718424 0.398384 0)
(0.0252019 0.411659 0)
(3 -6.40194e-17 0)
(3 -1.28665e-17 0)
(3 -5.45865e-17 0)
(3 -3.06222e-16 0)
(3 -1.27011e-16 0)
(3 -3.25421e-16 0)
(3 -6.45332e-16 0)
(3 -6.33207e-16 0)
(3 -3.5445e-16 0)
(3 -5.23798e-16 0)
(3 -5.76001e-16 0)
(3 -2.77264e-16 0)
(3 -6.30604e-16 0)
(3 -4.11992e-16 0)
(3 -4.05166e-16 0)
(3 2.29354e-16 0)
(3 7.26733e-16 0)
(3 -9.60934e-17 0)
(3 -6.36228e-16 0)
(3 -3.22995e-16 0)
(3 -7.0701e-16 0)
(3 5.67958e-16 0)
(3 1.18789e-15 0)
(3 7.20265e-16 0)
(3.00431 0.0023598 0)
(1.17831 0.267144 0)
(0.782267 0.235876 0)
(0.765406 0.261678 0)
(0.739617 0.274241 0)
(0.7149 0.280852 0)
(0.689723 0.284922 0)
(0.664337 0.289847 0)
(0.638094 0.297747 0)
(0.609926 0.307736 0)
(0.57926 0.318237 0)
(0.546006 0.32719 0)
(0.510447 0.334136 0)
(0.473389 0.341792 0)
(0.435203 0.350013 0)
(0.396207 0.359504 0)
(0.356297 0.370794 0)
(0.315114 0.382889 0)
(0.272457 0.395061 0)
(0.228363 0.409605 0)
(0.181539 0.424483 0)
(0.132943 0.441902 0)
(0.0799969 0.452546 0)
(0.0282384 0.467076 0)
(3 1.96671e-17 0)
(3 2.5257e-16 0)
(3 -5.01984e-18 0)
(3 -5.84476e-16 0)
(3 -4.17997e-16 0)
(3 -2.83336e-16 0)
(3 2.08959e-18 0)
(3 -2.47035e-16 0)
(3 -2.80967e-16 0)
(3 -3.79327e-16 0)
(3 -5.15595e-16 0)
(3 -6.04482e-16 0)
(3 -3.93618e-16 0)
(3 -2.02306e-16 0)
(3 8.99744e-18 0)
(3 4.02864e-16 0)
(3 7.85099e-16 0)
(3 3.23813e-16 0)
(3 -4.94048e-16 0)
(3 -1.16225e-15 0)
(3 -7.02581e-16 0)
(3 2.48156e-16 0)
(3 8.63536e-16 0)
(3 3.66707e-16 0)
(3.00009 5.05001e-06 0)
(1.33425 0.295302 0)
(0.784766 0.25795 0)
(0.746233 0.277392 0)
(0.721965 0.291002 0)
(0.69983 0.299509 0)
(0.678748 0.305405 0)
(0.658506 0.312554 0)
(0.638674 0.322457 0)
(0.618528 0.334382 0)
(0.596011 0.346798 0)
(0.569094 0.35851 0)
(0.537422 0.368584 0)
(0.502345 0.378986 0)
(0.464468 0.389546 0)
(0.424633 0.401009 0)
(0.383376 0.414144 0)
(0.340654 0.4282 0)
(0.296049 0.442535 0)
(0.248756 0.460606 0)
(0.198332 0.479523 0)
(0.145506 0.50123 0)
(0.0878677 0.515056 0)
(0.0296879 0.530113 0)
(3 8.01086e-17 0)
(3 4.67902e-17 0)
(3 1.39314e-16 0)
(3 1.97285e-17 0)
(3 -1.60665e-16 0)
(3 8.17643e-17 0)
(3 3.79471e-16 0)
(3 3.83189e-16 0)
(3 -7.30012e-17 0)
(3 -3.14914e-16 0)
(3 -3.70329e-16 0)
(3 -4.59305e-16 0)
(3 -1.73408e-16 0)
(3 -1.65591e-16 0)
(3 -6.57426e-18 0)
(3 7.23014e-17 0)
(3 4.76614e-16 0)
(3 1.32962e-15 0)
(3 1.06887e-15 0)
(3 -1.83755e-16 0)
(3 -3.94765e-16 0)
(3 -4.6021e-16 0)
(3 -4.43105e-16 0)
(3 3.15545e-16 0)
(3 -5.89695e-09 0)
(1.58262 0.327655 0)
(0.802283 0.30083 0)
(0.729413 0.302248 0)
(0.703498 0.308636 0)
(0.683082 0.314597 0)
(0.663903 0.319734 0)
(0.645653 0.326448 0)
(0.628895 0.33733 0)
(0.612817 0.351848 0)
(0.596542 0.368644 0)
(0.578126 0.385406 0)
(0.554396 0.400158 0)
(0.52565 0.414731 0)
(0.492053 0.429111 0)
(0.454523 0.443719 0)
(0.41406 0.459341 0)
(0.371102 0.476226 0)
(0.324871 0.49383 0)
(0.277436 0.515719 0)
(0.226313 0.538174 0)
(0.171884 0.564607 0)
(0.107109 0.585373 0)
(0.0382421 0.604542 0)
(3 -2.35302e-16 0)
(3 -1.21158e-16 0)
(3 3.71751e-16 0)
(3 2.35423e-16 0)
(3 3.93985e-18 0)
(3 2.32592e-17 0)
(3 1.08314e-17 0)
(3 7.66825e-17 0)
(3 -3.2033e-17 0)
(3 3.31105e-16 0)
(3 6.07141e-16 0)
(3 4.36093e-16 0)
(3 -2.36516e-16 0)
(3 -3.882e-16 0)
(3 2.59805e-16 0)
(3 8.05709e-16 0)
(3 1.01456e-15 0)
(3 9.12678e-16 0)
(3 6.09779e-16 0)
(3 2.60546e-16 0)
(3 2.05074e-16 0)
(3 4.26886e-16 0)
(3 5.98798e-16 0)
(3 9.59823e-16 0)
(3 -3.21695e-09 0)
(1.92999 0.362453 0)
(0.837582 0.363506 0)
(0.73681 0.342375 0)
(0.70983 0.335162 0)
(0.686224 0.337331 0)
(0.664378 0.342031 0)
(0.643534 0.346887 0)
(0.625028 0.355295 0)
(0.608767 0.368085 0)
(0.593561 0.384594 0)
(0.578965 0.40415 0)
(0.562207 0.424434 0)
(0.541177 0.444676 0)
(0.514887 0.464564 0)
(0.483115 0.484353 0)
(0.44645 0.504436 0)
(0.405782 0.525542 0)
(0.361246 0.546545 0)
(0.313909 0.572827 0)
(0.259272 0.603197 0)
(0.196782 0.641244 0)
(0.123682 0.677463 0)
(0.038913 0.701392 0)
(3 -9.52688e-17 0)
(3 2.26673e-17 0)
(3 1.86557e-16 0)
(3 2.61826e-16 0)
(3 1.27996e-16 0)
(3 -3.82665e-16 0)
(3 -5.5416e-16 0)
(3 -6.48536e-16 0)
(3 -4.60254e-16 0)
(3 1.01036e-16 0)
(3 5.93431e-16 0)
(3 5.53116e-16 0)
(3 -2.99018e-16 0)
(3 -7.5505e-16 0)
(3 -1.77329e-16 0)
(3 1.12289e-15 0)
(3 1.04047e-15 0)
(3 7.72623e-16 0)
(3 7.9983e-16 0)
(3 1.12705e-15 0)
(3 1.60797e-15 0)
(3 1.68706e-15 0)
(3 1.51047e-15 0)
(3 7.81496e-16 0)
(3 -5.73068e-10 0)
(2.42405 0.349639 0)
(0.922753 0.420623 0)
(0.795524 0.35851 0)
(0.762933 0.35542 0)
(0.726629 0.361517 0)
(0.693661 0.36637 0)
(0.663666 0.370248 0)
(0.637833 0.376848 0)
(0.616533 0.388045 0)
(0.598385 0.403135 0)
(0.582876 0.422129 0)
(0.567976 0.444085 0)
(0.552309 0.468452 0)
(0.532756 0.494076 0)
(0.508566 0.520252 0)
(0.47872 0.54649 0)
(0.443708 0.573495 0)
(0.402553 0.600475 0)
(0.357242 0.634945 0)
(0.306657 0.677289 0)
(0.249695 0.725279 0)
(0.179987 0.775607 0)
(0.0704874 0.821671 0)
(3 4.55442e-16 0)
(3 7.37271e-16 0)
(3 3.26706e-16 0)
(3 -1.64304e-16 0)
(3 -7.57045e-17 0)
(3 6.75618e-17 0)
(3 -6.37575e-17 0)
(3 -4.88567e-16 0)
(3 1.10678e-16 0)
(3 2.94119e-16 0)
(3 7.70938e-17 0)
(3 -1.20785e-16 0)
(3 -2.80666e-16 0)
(3 -6.76288e-16 0)
(3 -7.01882e-16 0)
(3 -5.92558e-16 0)
(3 2.26656e-16 0)
(3 2.39545e-16 0)
(3 1.23724e-15 0)
(3 1.52642e-15 0)
(3 1.5203e-15 0)
(3 1.33102e-15 0)
(3 1.14805e-15 0)
(3 1.11624e-15 0)
(3 -4.76664e-11 0)
(2.95782 0.136751 0)
(1.09609 0.424715 0)
(0.856972 0.387379 0)
(0.833341 0.385875 0)
(0.789139 0.393156 0)
(0.745467 0.399284 0)
(0.705128 0.401259 0)
(0.669915 0.40351 0)
(0.640543 0.411173 0)
(0.616335 0.424019 0)
(0.596541 0.44169 0)
(0.579924 0.463501 0)
(0.564726 0.489397 0)
(0.549776 0.518695 0)
(0.532294 0.550429 0)
(0.510398 0.583476 0)
(0.483692 0.618137 0)
(0.450196 0.653124 0)
(0.413664 0.694231 0)
(0.372638 0.743892 0)
(0.318076 0.815925 0)
(0.221623 0.923129 0)
(0.12082 1.04861 0)
(3 3.5961e-17 0)
(3 1.21992e-16 0)
(3 4.22746e-17 0)
(3 1.27104e-16 0)
(3 1.62793e-16 0)
(3 4.60578e-16 0)
(3 4.27514e-16 0)
(3 7.68466e-17 0)
(3 1.08433e-16 0)
(3 4.05993e-16 0)
(3 4.38241e-16 0)
(3 2.69634e-16 0)
(3 1.69754e-16 0)
(3 -1.04365e-16 0)
(3 -5.5029e-17 0)
(3 -3.03635e-16 0)
(3 -3.14528e-16 0)
(3 1.58018e-16 0)
(3 2.60308e-16 0)
(3 6.42595e-16 0)
(3 5.57616e-16 0)
(3 6.22283e-16 0)
(3 8.26868e-16 0)
(3 8.80871e-16 0)
(3 -1.3201e-12 0)
(3.03271 0.00760965 0)
(1.2444 0.397917 0)
(0.861418 0.412291 0)
(0.844298 0.43271 0)
(0.81375 0.437422 0)
(0.782941 0.438683 0)
(0.747979 0.438509 0)
(0.71192 0.438344 0)
(0.677636 0.44175 0)
(0.647445 0.450473 0)
(0.621931 0.464663 0)
(0.601191 0.484129 0)
(0.584627 0.5092 0)
(0.570791 0.539699 0)
(0.557984 0.575104 0)
(0.543118 0.613954 0)
(0.526081 0.656105 0)
(0.503239 0.69908 0)
(0.477307 0.748319 0)
(0.445194 0.81676 0)
(0.415398 0.9338 0)
(0.400809 1.08616 0)
(0.508168 1.34101 0)
(3 -1.2365e-16 0)
(3 -5.23565e-16 0)
(3 -5.53279e-16 0)
(3 1.07893e-16 0)
(3 1.2852e-16 0)
(3 5.00818e-17 0)
(3 2.02103e-17 0)
(3 1.41413e-16 0)
(3 4.55988e-16 0)
(3 6.7855e-16 0)
(3 8.62751e-16 0)
(3 9.6618e-16 0)
(3 1.40701e-15 0)
(3 2.21473e-15 0)
(3 1.87206e-15 0)
(3 1.06487e-15 0)
(3 8.45866e-16 0)
(3 8.15687e-16 0)
(3 1.84039e-16 0)
(3 3.36918e-16 0)
(3 4.59516e-16 0)
(3 4.78106e-16 0)
(3 5.21876e-16 0)
(3 2.12519e-16 0)
(3 -1.66498e-14 0)
(3.0008 1.07768e-06 0)
(1.46426 0.407447 0)
(0.840438 0.427344 0)
(0.823181 0.447273 0)
(0.805583 0.457934 0)
(0.789357 0.464458 0)
(0.769531 0.469274 0)
(0.744559 0.472223 0)
(0.715184 0.475779 0)
(0.685102 0.482644 0)
(0.656403 0.493863 0)
(0.631219 0.509583 0)
(0.611525 0.531829 0)
(0.59654 0.560844 0)
(0.586389 0.597107 0)
(0.577173 0.639277 0)
(0.569353 0.686906 0)
(0.559285 0.73803 0)
(0.547147 0.79748 0)
(0.53952 0.88105 0)
(0.545611 1.0042 0)
(0.622424 1.15036 0)
(0.916749 1.33855 0)
(3 -1.86027e-17 0)
(3 -4.56675e-17 0)
(3 5.555e-17 0)
(3 1.08116e-16 0)
(3 -1.26819e-16 0)
(3 -5.6881e-16 0)
(3 -3.98729e-16 0)
(3 2.0636e-16 0)
(3 4.5368e-16 0)
(3 3.78641e-16 0)
(3 1.04753e-15 0)
(3 1.17252e-15 0)
(3 2.60152e-15 0)
(3 2.80039e-15 0)
(3 1.81379e-15 0)
(3 1.18167e-15 0)
(3 6.01156e-16 0)
(3 1.74664e-16 0)
(3 -2.17998e-16 0)
(3 -8.96934e-17 0)
(3 1.08798e-16 0)
(3 1.22063e-16 0)
(3 -3.06675e-16 0)
(3 -5.90216e-16 0)
(3 -1.1259e-16 0)
(3 -7.48374e-08 0)
(1.86699 0.445382 0)
(0.867274 0.465479 0)
(0.804329 0.454906 0)
(0.798792 0.465233 0)
(0.790876 0.477827 0)
(0.779855 0.489417 0)
(0.764175 0.497859 0)
(0.743518 0.505606 0)
(0.720181 0.514205 0)
(0.694607 0.525308 0)
(0.669016 0.538003 0)
(0.647246 0.556492 0)
(0.629893 0.58203 0)
(0.620201 0.616522 0)
(0.614689 0.659115 0)
(0.613953 0.709696 0)
(0.616545 0.767083 0)
(0.621559 0.833501 0)
(0.638399 0.920381 0)
(0.681798 1.03107 0)
(0.82092 1.16044 0)
(1.14811 1.27702 0)
(3 -1.19106e-16 0)
(3 -3.17709e-16 0)
(3 -2.15614e-16 0)
(3 -3.27543e-16 0)
(3 -1.70913e-17 0)
(3 -1.59564e-16 0)
(3 -2.69124e-17 0)
(3 -1.85886e-16 0)
(3 -4.06311e-16 0)
(3 -8.72991e-16 0)
(3 -4.32206e-16 0)
(3 3.92634e-16 0)
(3 1.26872e-15 0)
(3 2.05148e-15 0)
(3 2.17065e-15 0)
(3 1.63163e-15 0)
(3 7.29081e-16 0)
(3 -3.44154e-16 0)
(3 -9.32315e-16 0)
(3 -1.19703e-15 0)
(3 -1.38416e-15 0)
(3 -1.30013e-15 0)
(3 -1.01254e-15 0)
(3 -1.3639e-15 0)
(3 -9.73373e-16 0)
(3 -6.18331e-08 0)
(2.51607 0.390978 0)
(0.976884 0.528795 0)
(0.849015 0.464587 0)
(0.830146 0.472186 0)
(0.812566 0.487968 0)
(0.799393 0.504262 0)
(0.784475 0.517133 0)
(0.767993 0.529084 0)
(0.750444 0.541574 0)
(0.730725 0.555889 0)
(0.708802 0.569284 0)
(0.688023 0.585777 0)
(0.669574 0.607155 0)
(0.659244 0.637854 0)
(0.655856 0.677699 0)
(0.660538 0.726949 0)
(0.672442 0.785718 0)
(0.695196 0.854079 0)
(0.73103 0.938913 0)
(0.806855 1.03884 0)
(0.969951 1.14047 0)
(1.24812 1.20843 0)
(3 -2.20645e-17 0)
(3 9.94167e-17 0)
(3 -3.04424e-17 0)
(3 3.52959e-18 0)
(3 3.48505e-16 0)
(3 5.72186e-16 0)
(3 2.25262e-16 0)
(3 -2.36148e-16 0)
(3 -6.71447e-16 0)
(3 -7.7499e-16 0)
(3 -6.1519e-16 0)
(3 -3.08974e-16 0)
(3 1.88343e-16 0)
(3 1.19536e-15 0)
(3 1.28707e-15 0)
(3 1.13408e-15 0)
(3 7.67171e-16 0)
(3 3.06617e-16 0)
(3 8.85659e-17 0)
(3 -5.62692e-16 0)
(3 -9.67652e-16 0)
(3 -1.42504e-15 0)
(3 -1.20075e-15 0)
(3 -8.24489e-16 0)
(3 -3.08179e-16 0)
(3 -1.15272e-08 0)
(3.08626 0.0677749 0)
(1.22416 0.509821 0)
(0.913166 0.492466 0)
(0.879875 0.502436 0)
(0.851577 0.511804 0)
(0.829317 0.522774 0)
(0.811046 0.53452 0)
(0.795075 0.547126 0)
(0.780601 0.56161 0)
(0.766101 0.578843 0)
(0.749447 0.595306 0)
(0.732216 0.612978 0)
(0.715378 0.632037 0)
(0.704558 0.658761 0)
(0.701628 0.694619 0)
(0.709675 0.740129 0)
(0.72717 0.795873 0)
(0.762344 0.860892 0)
(0.813177 0.940248 0)
(0.909497 1.02867 0)
(1.07021 1.10345 0)
(1.30328 1.14648 0)
(3 1.68291e-16 0)
(3 1.04085e-15 0)
(3 1.11282e-15 0)
(3 6.69268e-16 0)
(3 3.17836e-16 0)
(3 1.50906e-16 0)
(3 -3.09638e-16 0)
(3 -6.80179e-16 0)
(3 -5.02118e-16 0)
(3 -2.80351e-17 0)
(3 1.81918e-16 0)
(3 9.61927e-17 0)
(3 2.91077e-16 0)
(3 3.34984e-16 0)
(3 4.9874e-16 0)
(3 1.08084e-15 0)
(3 1.41442e-15 0)
(3 1.20757e-15 0)
(3 9.13448e-16 0)
(3 -3.51768e-16 0)
(3 -5.17286e-16 0)
(3 -5.9444e-16 0)
(3 -6.67169e-16 0)
(3 -5.83185e-16 0)
(3 -1.33362e-16 0)
(3 -1.0726e-09 0)
(3.014 0.000315855 0)
(1.42485 0.491228 0)
(0.909804 0.545414 0)
(0.87754 0.537271 0)
(0.856415 0.541599 0)
(0.837906 0.548006 0)
(0.823274 0.557401 0)
(0.809619 0.568967 0)
(0.799535 0.583516 0)
(0.790808 0.601761 0)
(0.781459 0.620635 0)
(0.771362 0.640215 0)
(0.760242 0.659089 0)
(0.752272 0.682368 0)
(0.750559 0.712977 0)
(0.760817 0.752662 0)
(0.781777 0.801875 0)
(0.822496 0.859206 0)
(0.882603 0.929384 0)
(0.987416 1.00628 0)
(1.13932 1.06253 0)
(1.33309 1.09292 0)
(3 2.31946e-17 0)
(3 7.44736e-17 0)
(3 4.17645e-16 0)
(3 -2.1078e-16 0)
(3 -3.12685e-16 0)
(3 -3.85587e-16 0)
(3 -4.00405e-16 0)
(3 -3.06293e-16 0)
(3 -7.30726e-17 0)
(3 1.18629e-16 0)
(3 5.74736e-16 0)
(3 6.01969e-16 0)
(3 1.10923e-16 0)
(3 -2.1165e-16 0)
(3 9.57468e-17 0)
(3 4.80738e-16 0)
(3 3.62126e-16 0)
(3 3.54467e-16 0)
(3 6.6981e-16 0)
(3 5.48638e-16 0)
(3 6.05354e-16 0)
(3 4.25709e-16 0)
(3 -1.82566e-16 0)
(3 -5.77019e-16 0)
(3 -1.15894e-16 0)
(3 -3.59692e-11 0)
(3.00012 -5.00162e-06 0)
(1.90284 0.503415 0)
(0.938355 0.580417 0)
(0.88003 0.555914 0)
(0.867208 0.563304 0)
(0.853099 0.567038 0)
(0.840956 0.574118 0)
(0.829898 0.584318 0)
(0.821225 0.597974 0)
(0.815505 0.616238 0)
(0.81083 0.636938 0)
(0.807206 0.659122 0)
(0.802724 0.680306 0)
(0.800095 0.703246 0)
(0.801185 0.730089 0)
(0.813162 0.764617 0)
(0.836488 0.806995 0)
(0.8787 0.854995 0)
(0.941477 0.912506 0)
(1.0438 0.976107 0)
(1.18357 1.02019 0)
(1.34476 1.04315 0)
(3 -2.30677e-16 0)
(3 -1.26167e-16 0)
(3 -5e-16 0)
(3 -5.08458e-16 0)
(3 -3.83959e-16 0)
(3 -3.8813e-16 0)
(3 -3.72959e-16 0)
(3 -2.17312e-16 0)
(3 4.50243e-16 0)
(3 8.24911e-16 0)
(3 1.32028e-15 0)
(3 1.19514e-15 0)
(3 7.05344e-16 0)
(3 -5.69522e-17 0)
(3 -6.28378e-16 0)
(3 -5.41307e-16 0)
(3 -1.40426e-15 0)
(3 -1.18062e-15 0)
(3 3.85374e-17 0)
(3 4.66204e-16 0)
(3 6.44599e-16 0)
(3 8.25706e-16 0)
(3 5.76076e-16 0)
(3 5.65837e-16 0)
(3 1.19673e-15 0)
(3 -6.07001e-14 0)
(3.00001 -5.49992e-06 0)
(2.67804 0.341447 0)
(1.07626 0.616573 0)
(0.925964 0.565019 0)
(0.905563 0.570578 0)
(0.884862 0.581108 0)
(0.868515 0.589833 0)
(0.85614 0.600501 0)
(0.845718 0.613245 0)
(0.840379 0.630619 0)
(0.837774 0.651255 0)
(0.838653 0.674343 0)
(0.840151 0.697309 0)
(0.84427 0.721092 0)
(0.850433 0.745623 0)
(0.86486 0.77548 0)
(0.890024 0.811447 0)
(0.932293 0.851047 0)
(0.994132 0.895947 0)
(1.08843 0.946666 0)
(1.21316 0.982396 0)
(1.34966 1.00027 0)
(3 2.27632e-16 0)
(3 2.05068e-16 0)
(3 -8.90305e-17 0)
(3 -1.57848e-16 0)
(3 -2.01668e-16 0)
(3 -6.66212e-17 0)
(3 -3.29549e-16 0)
(3 3.59128e-16 0)
(3 7.03841e-16 0)
(3 8.61714e-16 0)
(3 7.45374e-16 0)
(3 7.48787e-16 0)
(3 3.32104e-16 0)
(3 -4.60649e-16 0)
(3 -7.24153e-16 0)
(3 -5.95229e-16 0)
(3 -5.50771e-16 0)
(3 -3.59559e-16 0)
(3 -2.66868e-16 0)
(3 2.48437e-17 0)
(3 8.26379e-16 0)
(3 1.60598e-15 0)
(3 1.68514e-15 0)
(3 1.10464e-15 0)
(3 1.16207e-15 0)
(3 1.45727e-15 0)
(3 -1.11331e-06 0)
(3.07453 0.0343497 0)
(1.355 0.588766 0)
(0.980809 0.596948 0)
(0.950939 0.606563 0)
(0.924791 0.607142 0)
(0.902186 0.611384 0)
(0.886395 0.619769 0)
(0.874165 0.629884 0)
(0.867266 0.644812 0)
(0.864984 0.663641 0)
(0.868083 0.685929 0)
(0.873532 0.709531 0)
(0.883208 0.734089 0)
(0.895553 0.758636 0)
(0.913701 0.78549 0)
(0.941224 0.816399 0)
(0.983679 0.848887 0)
(1.04195 0.881884 0)
(1.12532 0.919771 0)
(1.23303 0.947764 0)
(1.35019 0.960829 0)
(3 2.49396e-17 0)
(3 -3.59705e-16 0)
(3 4.08259e-16 0)
(3 7.15838e-16 0)
(3 5.29075e-16 0)
(3 7.60987e-16 0)
(3 1.1624e-15 0)
(3 1.3129e-15 0)
(3 1.01728e-15 0)
(3 5.60399e-16 0)
(3 -1.7879e-17 0)
(3 -4.98935e-16 0)
(3 -1.22986e-15 0)
(3 -1.25872e-15 0)
(3 -9.88847e-16 0)
(3 -1.37863e-15 0)
(3 -8.36907e-16 0)
(3 -5.18336e-16 0)
(3 -5.35682e-16 0)
(3 8.04463e-16 0)
(3 4.76315e-16 0)
(3 6.03879e-16 0)
(3 8.85789e-16 0)
(3 1.31548e-15 0)
(3 1.45555e-15 0)
(3 2.26163e-15 0)
(3 -1.05323e-07 0)
(3.00549 8.60201e-05 0)
(1.6989 0.56994 0)
(0.974413 0.650558 0)
(0.948408 0.632806 0)
(0.937571 0.636102 0)
(0.92591 0.636782 0)
(0.913869 0.641411 0)
(0.903584 0.648287 0)
(0.896293 0.659856 0)
(0.893815 0.675538 0)
(0.897542 0.695367 0)
(0.905152 0.717582 0)
(0.917793 0.741486 0)
(0.934933 0.766016 0)
(0.957216 0.791499 0)
(0.987881 0.819161 0)
(1.03137 0.847456 0)
(1.08595 0.873291 0)
(1.16067 0.901336 0)
(1.25253 0.921639 0)
(1.35391 0.929515 0)
(3 -1.07232e-16 0)
(3 -3.52595e-16 0)
(3 -4.38981e-16 0)
(3 7.66424e-16 0)
(3 1.11511e-15 0)
(3 1.29678e-15 0)
(3 1.52432e-15 0)
(3 1.69019e-15 0)
(3 1.98031e-15 0)
(3 1.40143e-15 0)
(3 -8.12533e-16 0)
(3 -2.08584e-15 0)
(3 -2.09411e-15 0)
(3 -1.58128e-15 0)
(3 -1.25882e-15 0)
(3 -1.44396e-15 0)
(3 -1.85311e-15 0)
(3 -1.49936e-15 0)
(3 -4.7444e-16 0)
(3 3.14518e-16 0)
(3 2.72817e-16 0)
(3 4.08435e-16 0)
(3 6.93449e-16 0)
(3 1.45823e-15 0)
(3 1.86964e-15 0)
(3 1.99095e-15 0)
(3 -3.0002e-09 0)
(3.00002 -9.2374e-07 0)
(2.50035 0.441212 0)
(1.07919 0.679462 0)
(0.975693 0.63267 0)
(0.966449 0.643127 0)
(0.953408 0.652179 0)
(0.942376 0.659333 0)
(0.933533 0.66653 0)
(0.926885 0.676676 0)
(0.924146 0.689197 0)
(0.927486 0.706328 0)
(0.936198 0.72627 0)
(0.950353 0.748237 0)
(0.969946 0.771394 0)
(0.995268 0.795431 0)
(1.02875 0.820287 0)
(1.0731 0.845067 0)
(1.12482 0.866103 0)
(1.19287 0.886929 0)
(1.27119 0.900626 0)
(1.36075 0.905415 0)
(3 -1.01908e-17 0)
(3 -1.28829e-16 0)
(3 -2.90265e-16 0)
(3 -3.00223e-16 0)
(3 1.77294e-16 0)
(3 5.47376e-16 0)
(3 8.61762e-16 0)
(3 9.06762e-16 0)
(3 9.4507e-16 0)
(3 6.95245e-16 0)
(3 -8.83267e-16 0)
(3 -1.16774e-15 0)
(3 -7.58313e-16 0)
(3 -8.56083e-16 0)
(3 -1.17355e-15 0)
(3 -1.21748e-15 0)
(3 -1.19445e-15 0)
(3 -6.51353e-16 0)
(3 5.01923e-16 0)
(3 1.2583e-15 0)
(3 1.58979e-15 0)
(3 1.08861e-15 0)
(3 1.34644e-15 0)
(3 1.65455e-15 0)
(3 9.93614e-16 0)
(3 1.24433e-15 0)
(3 -6.20116e-12 0)
(3 -1.15656e-06 0)
(3.08076 0.0605204 0)
(1.3778 0.655658 0)
(1.02984 0.654072 0)
(1.00792 0.665534 0)
(0.989769 0.669219 0)
(0.976048 0.675391 0)
(0.966249 0.682672 0)
(0.959568 0.692123 0)
(0.956523 0.701937 0)
(0.958812 0.715562 0)
(0.967412 0.732926 0)
(0.982044 0.752522 0)
(1.00235 0.773827 0)
(1.02898 0.796095 0)
(1.06393 0.819427 0)
(1.10821 0.84163 0)
(1.15895 0.860441 0)
(1.22192 0.877066 0)
(1.29076 0.886468 0)
(1.37081 0.888896 0)
(3 1.37054e-16 0)
(3 1.84838e-16 0)
(3 -5.20133e-18 0)
(3 -7.68092e-16 0)
(3 -6.27811e-16 0)
(3 -4.33838e-16 0)
(3 -9.90899e-17 0)
(3 -5.378e-16 0)
(3 -7.84076e-16 0)
(3 -6.33599e-16 0)
(3 -4.30754e-16 0)
(3 5.00017e-16 0)
(3 5.2686e-16 0)
(3 -1.74572e-16 0)
(3 -3.85274e-16 0)
(3 -7.22252e-16 0)
(3 -1.00772e-16 0)
(3 8.86733e-16 0)
(3 9.95951e-16 0)
(3 1.38756e-15 0)
(3 1.19326e-15 0)
(3 1.58777e-15 0)
(3 1.79734e-15 0)
(3 1.53741e-15 0)
(3 -6.21077e-16 0)
(3 -6.93729e-16 0)
(3 -7.19376e-15 0)
(3 -2.33256e-07 0)
(3.00984 0.000339114 0)
(1.76448 0.624584 0)
(1.03411 0.710736 0)
(1.00988 0.691289 0)
(1.00486 0.694523 0)
(0.999669 0.70012 0)
(0.99412 0.705212 0)
(0.98928 0.712728 0)
(0.987635 0.719613 0)
(0.990245 0.729008 0)
(0.998618 0.742124 0)
(1.01315 0.759132 0)
(1.03385 0.777627 0)
(1.06069 0.797147 0)
(1.09519 0.817619 0)
(1.13724 0.83635 0)
(1.18687 0.853459 0)
(1.2454 0.867787 0)
(1.30874 0.875339 0)
(1.38163 0.877419 0)
(3 4.24499e-17 0)
(3 -8.81507e-17 0)
(3 -4.94579e-16 0)
(3 -6.36131e-16 0)
(3 -2.06367e-16 0)
(3 -2.45608e-17 0)
(3 -7.49299e-16 0)
(3 -1.4852e-15 0)
(3 -1.74934e-15 0)
(3 -6.05374e-16 0)
(3 6.05625e-16 0)
(3 4.24133e-16 0)
(3 2.38605e-16 0)
(3 1.51935e-16 0)
(3 2.21652e-16 0)
(3 7.61416e-16 0)
(3 1.043e-15 0)
(3 5.3884e-16 0)
(3 1.70362e-16 0)
(3 -9.87331e-17 0)
(3 2.03162e-16 0)
(3 6.74906e-16 0)
(3 6.01898e-16 0)
(3 -1.01791e-16 0)
(3 -3.08597e-16 0)
(3 -6.53036e-16 0)
(3 -1.57646e-15 0)
(3 -1.84297e-08 0)
(3.00006 -7.82193e-07 0)
(2.65994 0.389008 0)
(1.17102 0.723924 0)
(1.041 0.692013 0)
(1.03228 0.696596 0)
(1.02866 0.708127 0)
(1.0242 0.717794 0)
(1.02141 0.7254 0)
(1.02122 0.732136 0)
(1.02406 0.739764 0)
(1.03167 0.750184 0)
(1.04464 0.764025 0)
(1.06481 0.781146 0)
(1.09113 0.798558 0)
(1.12422 0.816489 0)
(1.16357 0.832459 0)
(1.21076 0.847265 0)
(1.26429 0.85881 0)
(1.32393 0.865105 0)
(1.3907 0.867539 0)
(3 -2.39718e-16 0)
(3 -1.83738e-16 0)
(3 -1.42978e-16 0)
(3 -1.95975e-17 0)
(3 -9.16879e-17 0)
(3 -1.79969e-16 0)
(3 -2.65775e-16 0)
(3 -6.34533e-16 0)
(3 -5.55729e-17 0)
(3 4.17636e-16 0)
(3 2.08858e-17 0)
(3 2.08348e-17 0)
(3 2.86203e-16 0)
(3 8.27649e-16 0)
(3 5.67019e-16 0)
(3 2.57783e-16 0)
(3 6.69201e-16 0)
(3 -2.83852e-17 0)
(3 -5.67099e-16 0)
(3 -7.49119e-16 0)
(3 -8.55965e-16 0)
(3 -1.69883e-15 0)
(3 -1.92018e-15 0)
(3 -6.74697e-16 0)
(3 3.86692e-16 0)
(3 1.93169e-16 0)
(3 -6.82851e-16 0)