/*--------------------------------*- C++ -*----------------------------------*\
  =========                 |
  \\      /  F ield         | OpenFOAM: The Open Source CFD Toolbox
   \\    /   O peration     | Website:  https://openfoam.org
    \\  /    A nd           | Version:  7
     \\/     M anipulation  |
\*---------------------------------------------------------------------------*/
FoamFile
{
    version     2.0;
    format      ascii;
    class       volScalarField;
    location    "2.6";
    object      p;
}
// * * * * * * * * * * * * * * * * * * * * * * * * * * * * * * * * * * * * * //

dimensions      [1 -1 -2 0 0 0 0];

internalField   nonuniform List<scalar> 
16128
(
1
1
1
1
1
1
1
1
1
1
1
1
1
1
1
1
1
1
1
1
1
1
1
1
3.25179
9.71753
10.5687
10.641
10.7645
10.8717
10.9781
11.081
11.1802
11.2752
11.3648
11.4472
11.5221
11.5906
11.6547
11.7156
11.773
11.8247
11.8704
11.9098
11.9437
11.9705
11.9894
12.0027
1
1
1
1
1
1
1
1
1
1
1
1
1
1
1
1
1
1
1
1
1
1
1
1
3.19289
9.66075
10.5662
10.6418
10.7639
10.8699
10.9752
11.077
11.1747
11.2682
11.3569
11.4392
11.5145
11.5831
11.6468
11.7068
11.7631
11.8138
11.8587
11.8974
11.9308
11.9573
11.9759
11.9892
1
1
1
1
1
1
1
1
1
1
1
1
1
1
1
1
1
1
1
1
1
1
1
1
3.05106
9.5795
10.5555
10.6317
10.753
10.8589
10.9644
11.066
11.1632
11.2557
11.3435
11.4257
11.5015
11.5706
11.6345
11.6939
11.7492
11.7987
11.8421
11.8792
11.9111
11.9362
11.9535
11.9663
1
1
1
1
1
1
1
1
1
1
1
1
1
1
1
1
1
1
1
1
1
1
1
1
2.83943
9.44006
10.5436
10.6164
10.7358
10.8405
10.9453
11.0464
11.1432
11.2351
11.3222
11.4041
11.4799
11.5494
11.6133
11.6722
11.7266
11.7749
11.8172
11.8528
11.8834
11.9068
11.9222
11.934
1
1
1
1
1
1
1
1
1
1
1
1
1
1
1
1
1
1
1
1
1
1
1
1
2.58541
9.23905
10.5254
10.593
10.71
10.813
10.9173
11.0185
11.1159
11.2083
11.2954
11.3765
11.4513
11.5199
11.583
11.6412
11.6946
11.7419
11.7834
11.8179
11.8478
11.8697
11.8832
11.8939
1
1
1
1
1
1
1
1
1
1
1
1
1
1
1
1
1
1
1
1
1
1
1
1
2.29113
8.95725
10.5077
10.5705
10.6844
10.7852
10.888
10.9878
11.084
11.1753
11.2609
11.3403
11.4135
11.4809
11.5433
11.601
11.6537
11.6997
11.7399
11.7729
11.8013
11.8214
11.8333
11.8432
1
1
1
1
1
1
1
1
1
1
1
1
1
1
1
1
1
1
1
1
1
1
1
1
1.97203
8.58867
10.4963
10.5487
10.6588
10.7563
10.8568
10.9543
11.0486
11.1379
11.2217
11.2994
11.3709
11.4366
11.497
11.5522
11.6021
11.6454
11.6834
11.7149
11.7426
11.762
11.773
11.7828
1
1
1
1
1
1
1
1
1
1
1
1
1
1
1
1
1
1
1
1
1
1
1
1
1.63749
8.10387
10.4883
10.5248
10.6291
10.7224
10.8199
10.9151
11.0075
11.0952
11.1771
11.2529
11.3222
11.3855
11.4432
11.4953
11.5422
11.5825
11.6177
11.6466
11.6716
11.6881
11.6968
11.705
1
1
1
1
1
1
1
1
1
1
1
1
1
1
1
1
1
1
1
1
1
1
1
1
1.32619
7.54638
10.4697
10.4832
10.5819
10.6735
10.7705
10.8653
10.9555
11.0402
11.1194
11.1934
11.2611
11.3225
11.3778
11.4267
11.4697
11.5055
11.5362
11.5615
11.5836
11.5985
11.606
11.6141
1
1
1
1
1
1
1
1
1
1
1
1
1
1
1
1
1
1
1
1
1
1
1
1
1.04341
6.86459
10.4041
10.4417
10.5313
10.6216
10.7134
10.8044
10.8919
10.9754
11.0532
11.1248
11.1899
11.2486
11.3005
11.3454
11.3842
11.416
11.4424
11.4638
11.4806
11.4891
11.4923
11.4968
1
1
1
1
1
1
1
1
1
1
1
1
1
1
1
1
1
1
1
1
1
1
1
1
1.00066
6.01915
10.2313
10.3552
10.4565
10.5598
10.6562
10.7468
10.8289
10.9044
10.9762
11.0448
11.1073
11.1622
11.2098
11.2499
11.2834
11.3092
11.3273
11.3398
11.3476
11.3518
11.3528
11.3585
1
1
1
1
1
1
1
1
1
1
1
1
1
1
1
1
1
1
1
1
1
1
1
1
1
5.07482
10.0136
10.2879
10.3893
10.4916
10.5847
10.6723
10.7515
10.8247
10.8917
10.952
11.0078
11.0579
11.1003
11.1348
11.1618
11.181
11.1927
11.1978
11.1975
11.1888
11.1744
11.1648
1
1
1
1
1
1
1
1
1
1
1
1
1
1
1
1
1
1
1
1
1
1
1
1
1
4.09053
9.6907
10.2209
10.3409
10.4434
10.5318
10.6113
10.6798
10.7396
10.7942
10.8462
10.8955
10.9384
10.9735
11.0002
11.0198
11.0307
11.0286
11.0153
10.9907
10.9631
10.9349
10.9333
1
1
1
1
1
1
1
1
1
1
1
1
1
1
1
1
1
1
1
1
1
1
1
1
1
3.11245
9.20744
10.1864
10.285
10.3868
10.4755
10.5505
10.6126
10.664
10.7074
10.7455
10.7799
10.8112
10.8345
10.8496
10.8569
10.8508
10.8312
10.8007
10.7581
10.7112
10.6431
10.5628
1
1
1
1
1
1
1
1
1
1
1
1
1
1
1
1
1
1
1
1
1
1
1
1
1
2.10744
8.44269
10.2548
10.2648
10.3534
10.4232
10.4829
10.5351
10.5796
10.6156
10.6439
10.6658
10.6823
10.6898
10.6898
10.6768
10.6504
10.6076
10.5447
10.447
10.3073
10.1628
10.0559
1
1
1
1
1
1
1
1
1
1
1
1
1
1
1
1
1
1
1
1
1
1
1
1
1
1.25247
7.56124
10.3519
10.2172
10.2608
10.3323
10.4
10.4517
10.4913
10.5196
10.5375
10.5471
10.5501
10.5415
10.5214
10.4851
10.4316
10.3514
10.2365
10.0788
9.87862
9.66453
9.57698
1
1
1
1
1
1
1
1
1
1
1
1
1
1
1
1
1
1
1
1
1
1
1
1
1
1.00783
6.37135
10.0525
10.0528
10.1621
10.2396
10.3029
10.3527
10.3881
10.4108
10.4206
10.4203
10.4093
10.3841
10.3438
10.2824
10.1974
10.0768
9.91383
9.67434
9.28816
8.41627
6.49601
1
1
1
1
1
1
1
1
1
1
1
1
1
1
1
1
1
1
1
1
1
1
1
1
1
0.999981
4.87916
9.67292
9.96656
10.0842
10.1507
10.1968
10.2396
10.2722
10.2903
10.294
10.2855
10.2617
10.2207
10.1597
10.0724
9.95437
9.79065
9.56022
9.21311
8.61236
7.66642
5.52297
1
1
1
1
1
1
1
1
1
1
1
1
1
1
1
1
1
1
1
1
1
1
1
1
1
0.999995
3.42369
9.13065
9.93593
10.0295
10.088
10.1139
10.1381
10.1597
10.1677
10.1629
10.1443
10.1085
10.0518
9.97061
9.85775
9.70631
9.50075
9.21091
8.7843
8.12262
7.03984
5.15517
1
1
1
1
1
1
1
1
1
1
1
1
1
1
1
1
1
1
1
1
1
1
1
1
1
0.999999
2.06072
8.31384
9.97629
9.96091
10.0011
10.0263
10.0451
10.0559
10.0509
10.0327
10.0005
9.95104
9.87872
9.77936
9.64321
9.4632
9.22019
8.89117
8.405
7.74393
6.61856
5.11863
1
1
1
1
1
1
1
1
1
1
1
1
1
1
1
1
1
1
1
1
1
1
1
1
1
1
1.12628
7.04381
10.0119
9.92634
9.91061
9.92811
9.93885
9.94161
9.92767
9.89975
9.85511
9.79301
9.70593
9.59021
9.43372
9.23035
8.95949
8.60348
8.10395
7.44725
6.40344
5.21233
1
1
1
1
1
1
1
1
1
1
1
1
1
1
1
1
1
1
1
1
1
1
1
1
1
1
1.00136
5.37145
9.51399
9.72634
9.77557
9.80442
9.81811
9.81849
9.8004
9.76566
9.71023
9.63585
9.53505
9.40472
9.23243
9.01159
8.72397
8.35196
7.86032
7.2284
6.30944
5.33041
1
1
1
1
1
1
1
1
1
1
1
1
1
1
1
1
1
1
1
1
1
1
1
1
1
1
0.999984
3.48224
8.967
9.65819
9.70706
9.72919
9.72686
9.71378
9.68566
9.6412
9.57512
9.48825
9.37445
9.23099
9.04499
8.81075
8.51385
8.13804
7.66151
7.06986
6.27044
5.44718
1
1
1
1
1
1
1
1
1
1
1
1
1
1
1
1
1
1
1
1
1
1
1
1
1
1
0.999996
1.82488
8.11844
9.70491
9.63919
9.63562
9.6198
9.59609
9.56038
9.50964
9.43679
9.34126
9.21757
9.06595
8.87151
8.62872
8.32893
7.95884
7.49754
6.94756
6.25829
5.55302
1
1
1
1
1
1
1
1
1
1
1
1
1
1
1
1
1
1
1
1
1
1
1
1
1
1
0.999999
1.06829
6.54726
9.53912
9.48553
9.49926
9.49296
9.47494
9.43893
9.38438
9.3058
9.2032
9.07128
8.91011
8.71212
8.46553
8.16823
7.8059
7.36221
6.85561
6.25281
5.6448
1
1
1
1
1
1
1
1
1
1
1
1
1
1
1
1
1
1
1
1
1
1
1
1
1
1
1
1.00024
4.37596
9.00236
9.38067
9.41648
9.39937
9.3737
9.33004
9.2685
9.18277
9.07287
8.93448
8.76617
8.5653
8.32114
8.03055
7.67506
7.25551
6.79201
6.25458
5.73027
1
1
1
1
1
1
1
1
1
1
1
1
1
1
1
1
1
1
1
1
1
1
1
1
1
1
1
0.999998
2.25394
8.28442
9.37436
9.34171
9.31079
9.27688
9.22501
9.15657
9.06438
8.94882
8.80557
8.63355
8.4307
8.19021
7.90662
7.56216
7.17337
6.7454
6.26083
5.79575
1
1
1
1
1
1
1
1
1
1
1
1
1
1
1
1
1
1
1
1
1
1
1
1
1
1
1
0.999999
1.1362
6.63844
9.30426
9.24235
9.21697
9.17636
9.12183
9.04995
8.95449
8.83525
8.6906
8.51598
8.31303
8.0754
7.79734
7.46843
7.11091
6.71398
6.27927
5.85347
1
1
1
1
1
1
1
1
1
1
1
1
1
1
1
1
1
1
1
1
1
1
1
1
1
1
1
1
1.00128
4.26235
8.75939
9.10832
9.11016
9.08819
9.03527
8.95645
8.85407
8.7303
8.58226
8.40576
8.20865
7.97224
7.69983
7.38967
7.05803
6.68706
6.29622
5.89825
1
1
1
1
1
1
1
1
1
1
1
1
1
1
1
1
1
1
1
1
1
1
1
1
1
1
1
1
0.99999
1.92441
7.98595
9.23171
9.083
9.00804
8.94572
8.86103
8.75549
8.63069
8.48365
8.30704
8.11473
7.88047
7.61564
7.32412
7.01137
6.66474
6.30933
5.93708
1
1
1
1
1
1
1
1
1
1
1
1
1
1
1
1
1
1
1
1
1
1
1
1
1
1
1
1
0.999998
1.07235
6.14895
8.90151
8.90878
8.89367
8.83937
8.75624
8.65231
8.52985
8.38552
8.21519
8.02186
7.79744
7.54346
7.2684
6.9698
6.64721
6.31568
5.96543
1
1
1
1
1
1
1
1
1
1
1
1
1
1
1
1
1
1
1
1
1
1
1
1
1
1
1
1
1
1.00022
3.37353
8.27807
8.84968
8.83999
8.78398
8.69332
8.5837
8.45588
8.30617
8.13346
7.93878
7.72055
7.47736
7.21599
6.93143
6.63065
6.31691
5.9909
1
1
1
1
1
1
1
1
1
1
1
1
1
1
1
1
1
1
1
1
1
1
1
1
1
1
1
1
1
0.999998
1.37278
7.06561
8.94164
8.80433
8.71504
8.61143
8.49829
8.36975
8.22044
8.05017
7.861
7.64942
7.41754
7.16899
6.89953
6.61554
6.31879
6.01495
1
1
1
1
1
1
1
1
1
1
1
1
1
1
1
1
1
1
1
1
1
1
1
1
1
1
1
1
1
1
1.01169
4.66636
8.45602
8.64065
8.60287
8.52431
8.42567
8.29767
8.14461
7.97381
7.78773
7.58279
7.36069
7.12384
6.86923
6.59992
6.32069
6.0359
1
1
1
1
1
1
1
1
1
1
1
1
1
1
1
1
1
1
1
1
1
1
1
1
1
1
1
1
1
1
0.999965
1.89567
7.65089
8.77433
8.60583
8.48411
8.36595
8.22578
8.07047
7.90451
7.72447
7.52783
7.31471
7.08685
6.84411
6.5884
6.3255
6.05635
1
1
1
1
1
1
1
1
1
1
1
1
1
1
1
1
1
1
1
1
1
1
1
1
1
1
1
1
1
1
0.999991
1.06363
5.66518
8.49164
8.45157
8.37775
8.26452
8.1283
7.98459
7.83048
7.65962
7.47222
7.26811
7.04941
6.8178
6.57526
6.32726
6.07215
1
1
1
1
1
1
1
1
1
1
1
1
1
1
1
1
1
1
1
1
1
1
1
1
1
1
1
1
1
1
0.999999
1.0002
2.65111
7.80082
8.43663
8.32761
8.20591
8.07548
7.93851
7.78681
7.61735
7.43196
7.23125
7.01895
6.79782
6.56839
6.33305
6.09042
1
1
1
1
1
1
1
1
1
1
1
1
1
1
1
1
1
1
1
1
1
1
1
1
1
1
1
1
1
1
1
0.999999
1.18802
6.04327
8.35644
8.24227
8.13675
8.01544
7.88353
7.7342
7.56803
7.38723
7.19321
6.9896
6.77874
6.56029
6.33563
6.10498
1
1
1
1
1
1
1
1
1
1
1
1
1
1
1
1
1
1
1
1
1
1
1
1
1
1
1
1
1
1
1
1
1.00265
3.02891
7.66595
8.15672
8.08109
7.97402
7.84611
7.69867
7.53479
7.35866
7.17137
6.97444
6.7704
6.55938
6.34242
6.12107
1
1
1
1
1
1
1
1
1
1
1
1
1
1
1
1
1
1
1
1
1
1
1
1
1
1
1
1
1
1
1
1
1
1.2736
6.02655
8.15388
8.07322
7.95599
7.8169
7.66153
7.496
7.32284
7.14148
6.95163
6.75511
6.5527
6.34442
6.13144
1
1
1
1
1
1
1
1
1
1
1
1
1
1
1
1
1
1
1
1
1
1
1
1
1
1
1
1
1
1
1
1
1
1.00586
3.0221
7.48736
8.00559
7.89393
7.7629
7.61361
7.4561
7.29032
7.11671
6.93513
6.74635
6.55147
6.35117
6.14607
1
1
1
1
1
1
1
1
1
1
1
1
1
1
1
1
1
1
1
1
1
1
1
1
1
1
1
1
1
1
1
1
1
1.00001
1.27494
5.80614
7.99971
7.87295
7.74372
7.59392
7.43849
7.2727
7.09983
6.92164
6.73836
6.54989
6.35689
6.16034
1
1
1
1
1
1
1
1
1
1
1
1
1
1
1
1
1
1
1
1
1
1
1
1
1
1
1
1
1
1
1
1
1
1
1.00603
2.69229
7.22644
7.81718
7.69289
7.5544
7.40302
7.24056
7.07295
6.90131
6.72546
6.54513
6.36015
6.17128
1
1
1
1
1
1
1
1
1
1
1
1
1
1
1
1
1
1
1
1
1
1
1
1
1
1
1
1
1
1
1
1
1
1
1.00002
1.19783
5.37026
7.81258
7.68638
7.54415
7.38337
7.22074
7.05859
6.89387
6.7248
6.55122
6.37329
6.19066
1
1
1
1
1
1
1
1
1
1
1
1
1
1
1
1
1
1
1
1
1
1
1
1
1
1
1
1
1
1
1
1
1
1
1
1.00331
2.32742
6.85116
7.63869
7.48457
7.33821
7.18684
7.03585
6.88101
6.72041
6.55349
6.38132
6.20535
1
1
1
1
1
1
1
1
1
1
1
1
1
1
1
1
1
1
1
1
1
1
1
1
1
1
1
1
1
1
1
1
1
1
1
1.00001
1.1224
4.60033
7.49849
7.46135
7.32879
7.191
7.04999
6.89954
6.74072
6.575
6.40417
6.23137
1
1
1
1
1
1
1
1
1
1
1
1
1
1
1
1
1
1
1
1
1
1
1
1
1
1
1
1
1
1
1
1
1
1
1
1
1.00157
1.86519
6.2399
7.46472
7.30723
7.18927
7.05044
6.89939
6.74091
6.57815
6.41189
6.24378
1
1
1
1
1
1
1
1
1
1
1
1
1
1
1
1
1
1
1
1
1
1
1
1
1
1
1
1
1
1
1
1
1
1
1
1
1
1.0547
3.48133
7.00308
7.31069
7.19174
7.05442
6.90242
6.74507
6.58626
6.42575
6.26122
1
1
1
1
1
1
1
1
1
1
1
1
1
1
1
1
1
1
1
1
1
1
1
1
1
1
1
1
1
1
1
1
1
1
1
1
1
1.00056
1.41341
5.32429
7.35402
7.20741
7.05966
6.90344
6.75033
6.59677
6.44183
6.28205
1
1
1
1
1
1
1
1
1
1
1
1
1
1
1
1
1
1
1
1
1
1
1
1
1
1
1
1
1
1
1
1
1
1
1
1
1
1
1.01414
2.43825
6.45077
7.17813
7.02518
6.88945
6.74845
6.60143
6.44922
6.29492
1
1
1
1
1
1
1
1
1
1
1
1
1
1
1
1
1
1
1
1
1
1
1
1
1
1
1
1
1
1
1
1
1
1
1
1
1
1
1.0001
1.14379
4.09617
6.94407
7.04402
6.91553
6.77472
6.62794
6.4755
6.32101
1
1
1
1
1
1
1
1
1
1
1
1
1
1
1
1
1
1
1
1
1
1
1
1
1
1
1
1
1
1
1
1
1
1
1
1
1
1
1
1.00249
1.66039
5.4909
7.04467
6.92208
6.77851
6.63377
6.48595
6.33552
1
1
1
1
1
1
1
1
1
1
1
1
1
1
1
1
1
1
1
1
1
1
1
1
1
1
1
1
1
1
1
1
1
1
1
1
1
1
1
1.00001
1.03382
2.68642
6.32899
6.91034
6.78002
6.6383
6.4965
6.35083
1
1
1
1
1
1
1
1
1
1
1
1
1
1
1
1
1
1
1
1
1
1
1
1
1
1
1
1
1
1
1
1
1
1
1
1
1
1
1
1
1.00035
1.19681
4.10311
6.66577
6.80595
6.67513
6.52885
6.38298
1
1
1
1
1
1
1
1
1
1
1
1
1
1
1
1
1
1
1
1
1
1
1
1
1
1
1
1
1
1
1
1
1
1
1
1
1
1
1
1
1
1.0044
1.6807
5.24057
6.76344
6.69285
6.54553
6.40357
1
1
1
1
1
1
1
1
1
1
1
1
1
1
1
1
1
1
1
1
1
1
1
1
1
1
1
1
1
1
1
1
1
1
1
1
1
1
1
1
1
1.00003
1.03638
2.52596
5.9853
6.67112
6.56592
6.42297
1
1
1
1
1
1
1
1
1
1
1
1
1
1
1
1
1
1
1
1
1
1
1
1
1
1
1
1
1
1
1
1
1
1
1
1
1
1
1
1
1
1
1.00041
1.16532
3.63909
6.33018
6.59783
6.46088
1
1
1
1
1
1
1
1
1
1
1
1
1
1
1
1
1
1
1
1
1
1
1
1
1
1
1
1
1
1
1
1
1
1
1
1
1
1
1
1
1
1
1
1.00353
1.49476
4.68174
6.45048
6.48741
1
1
1
1
1
1
1
1
1
1
1
1
1
1
1
1
1
1
1
1
1
1
1
1
1
1
1
1
1
1
1
1
1
1
1
1
1
1
1
1
1
1
1
1.00002
1.02141
2.08776
5.39088
6.43919
1
1
1
1
1
1
1
1
1
1
1
1
1
1
1
1
1
1
1
1
1
1
1
1
1
1
1
1
1
1
1
1
1
1
1
1
1
1
1
1
1
1
1
1
1.00021
1.08831
2.86868
5.85964
1
1
1
1
1
1
1
1
1
1
1
1
1
1
1
1
1
1
1
1
1
1
1
1
1
1
1
1
1
1
1
1
1
1
1
1
1
1
1
1
1
1
1
1
1
1.00149
1.25326
3.73718
1
1
1
1
1
1
1
1
1
1
1
1
1
1
1
1
1
1
1
1
1
1
1
1
1
1
1
1
1
1
1
1
1
1
1
1
1
1
1
1
1
1
1
1
1
1.00001
1.00725
1.56318
1
1
1
1
1
1
1
1
1
1
1
1
1
1
1
1
1
1
1
1
1
1
1
1
1
1
1
1
1
1
1
1
1
1
1
1
1
1
1
1
1
1
1
1
1
1
1.00005
1.02793
1
1
1
1
1
1
1
1
1
1
1
1
1
1
1
1
1
1
1
1
1
1
1
1
1
1
1
1
1
1
1
1
1
1
1
1
1
1
1
1
1
1
1
1
1
1
1
1.00032
1
1
1
1
1
1
1
1
1
1
1
1
1
1
1
1
1
1
1
1
1
1
1
1
1
1
1
1
1
1
1
1
1
1
1
1
1
1
1
1
1
1
1
1
1
1
1
1
1
1
1
1
1
1
1
1
1
1
1
1
1
1
1
1
1
1
1
1
1
1
1
1
1
1
1
1
1
1
1
1
1
1
1
1
1
1
1
1
1
1
1
1
1
1
1
1
1
1
1
1
1
1
1
1
1
1
1
1
1
1
1
1
1
1
1
1
1
1
1
1
1
1
1
1
1
1
1
1
1
1
1
1
1
1
1
1
1
1
1
1
1
1
1
1
1
1
1
1
1
1
1
1
1
1
1
1
1
1
1
1
1
1
1
1
1
1
1
1
1
1
1
1
1
1
1
1
1
1
1
1
1
1
1
1
1
1
1
1
1
1
1
1
1
1
1
1
1
1
1
1
1
1
1
1
1
1
1
1
1
1
1
1
1
1
1
1
1
1
1
1
1
1
1
1
1
1
1
1
1
1
1
1
1
1
1
1
1
1
1
1
1
1
1
1
1
1
1
1
1
1
1
1
1
1
1
1
1
1
1
1
1
1
1
1
1
1
1
1
1
1
1
1
1
1
1
1
1
1
1
1
1
1
1
1
1
1
1
1
1
1
1
1
1
1
1
1
1
1
1
1
1
1
1
1
1
1
1
1
1
1
1
1
1
1
1
1
1
1
1
1
1
1
1
1
1
1
1
1
1
1
1
1
1
1
1
1
1
1
1
1
1
1
1
1
1
1
1
1
1
1
1
1
1
1
1
1
1
1
1
1
1
1
1
1
1
1
1
1
1
1
1
1
1
1
1
1
1
1
1
1
1
1
1
1
1
1
1
1
1
1
1
1
1
1
1
1
1
1
1
1
1
1
1
1
1
1
1
1
1
1
1
1
1
1
1
1
1
1
1
1
1
1
1
1
1
1
1
1
1
1
1
1
1
1
1
1
1
1
1
1
1
1
1
1
1
1
1
1
1
1
1
1
1
1
1
1
1
1
1
1
1
1
1
1
1
1
1
1
1
1
1
1
1
1
1
1
1
1
1
1
1
1
1
1
1
1
1
1
1
1
1
1
1
1
1
1
1
1
1
1
1
1
1
1
1
1
1
1
1
1
1
1
1
1
1
1
1
1
1
1
1
1
1
1
1
1
1
1
1
1
1
1
1
1
1
1
1
1
1
1
1
1
1
1
1
1
1
1
1
1
1
1
1
1
1
1
1
1
1
1
1
1
1
1
1
1
1
1
1
1
1
1
1
1
1
1
1
1
1
1
1
1
1
1
1
1
1
1
1
1
1
1
1
1
1
1
1
1
1
1
1
1
1
1
1
1
1
1
1
1
1
1
1
1
1
1
1
1
1
1
1
1
1
1
1
1
1
1
1
1
1
1
1
1
1
1
1
1
1
1
1
1
1
1
1
1
1
1
1
1
1
1
1
1
1
1
1
1
1
1
1
1
1
1
1
1
1
1
1
1
1
1
1
1
1
1
1
1
1
1
1
1
1
1
1
1
1
1
1
1
1
1
1
1
1
1
1
1
1
1
1
1
1
1
1
1
1
1
1
1
1
1
1
1
1
1
1
1
1
1
1
1
1
1
1
1
1
1
1
1
1
1
1
1
1
1
1
1
1
1
1
1
1
1
1
1
1
1
1
1
1
1
1
1
1
1
1
1
1
1
1
1
1
1
1
1
1
1
1.27168
0.244064
0.0345618
0.0446015
0.0856217
0.0921372
0.105164
0.147554
0.212752
0.276639
0.340462
0.4224
0.514238
0.569015
0.629699
0.718568
0.803211
0.850135
0.875675
0.898586
0.94102
0.98073
1.00223
1.013
1.02244
1.03673
1.0415
1.05326
1.07627
1.11689
1.16766
1.19683
1.21969
1.22223
1.21578
1.21332
1.21104
1.21593
1.22452
1.24887
1.28341
1.29412
1.29195
1.2889
1.28187
1.27929
1.28095
1.29172
1.31388
1.32486
1.32509
1.32254
1.31699
1.31574
1.31791
1.32079
1.32346
1.32639
1.32906
1.33225
1.3365
1.33995
1.33915
1.33585
1.33043
1.32295
1.31978
1.32029
1.32632
1.33567
1.335
1.33301
1.6878
5.09836
6.85315
6.80958
6.75645
6.68889
6.62203
6.55577
6.47961
6.39826
6.31991
6.24531
6.17187
6.09911
6.02446
5.94668
5.86799
5.79324
5.72928
5.67802
5.63781
5.60439
5.57025
5.52349
5.46469
5.40256
5.34502
5.29621
5.25598
5.2126
5.1491
5.07444
4.98451
4.90103
4.84235
4.80325
4.78772
4.75678
4.70812
4.65588
4.59689
4.54077
4.49516
4.4553
4.42726
4.40573
4.3694
4.32305
4.26632
4.19672
4.1414
4.10596
4.07714
4.05977
4.04568
4.01771
3.98474
3.94601
3.89491
3.83892
3.79966
3.77174
3.74396
3.71242
3.67124
3.6207
3.57425
3.54063
3.51451
3.49105
3.47291
3.46174
3.44624
3.42323
3.39571
3.35401
3.29578
3.24311
3.20786
3.18224
3.15958
3.13661
3.11026
3.07599
3.03712
3.01014
2.99243
2.979
2.97225
2.96205
2.94398
2.91756
2.87372
2.81707
2.77788
2.75703
2.74119
2.72782
2.71822
2.7039
2.68813
2.67096
2.64742
2.61502
2.59432
2.58137
2.57084
2.55896
2.54192
2.51798
2.47729
2.41512
2.3643
2.34073
2.32698
2.31597
2.3117
2.31799
2.32226
2.30329
2.24134
0.997537
0.354132
0.319677
0.323242
0.270615
0.21722
0.213334
0.216824
0.220254
0.235244
0.262639
0.309141
0.365803
0.430301
0.505598
0.596829
0.662902
0.709138
0.764862
0.836263
0.905962
0.947894
0.974763
0.991465
1.01056
1.03251
1.05833
1.08028
1.10556
1.13388
1.1536
1.17309
1.19014
1.198
1.20726
1.21671
1.22533
1.23555
1.25428
1.27586
1.2846
1.28597
1.28694
1.285
1.28098
1.2806
1.28571
1.3017
1.31941
1.3234
1.32304
1.31832
1.30964
1.31019
1.31423
1.31841
1.32346
1.32835
1.33027
1.33146
1.33261
1.33352
1.33441
1.33421
1.3324
1.32836
1.32513
1.3223
1.32055
1.32452
1.36701
1.76889
4.82033
6.86887
6.82915
6.62782
6.55451
6.53163
6.51254
6.45541
6.38958
6.32427
6.24927
6.16335
6.08043
6.00422
5.93648
5.88345
5.83338
5.76916
5.69568
5.62395
5.55977
5.5109
5.47843
5.44813
5.40002
5.33845
5.27641
5.21574
5.16473
5.11481
5.05756
5.00117
4.94435
4.88721
4.83936
4.79848
4.75279
4.70663
4.65973
4.61268
4.56123
4.50668
4.45937
4.41884
4.3819
4.3469
4.30949
4.26473
4.21444
4.16177
4.11651
4.08313
4.05688
4.03433
4.00979
3.97972
3.94504
3.90272
3.85134
3.8011
3.76397
3.73484
3.70558
3.67038
3.62824
3.58618
3.54897
3.51824
3.49384
3.47312
3.455
3.43342
3.40877
3.38104
3.34753
3.3058
3.26213
3.22161
3.18886
3.16335
3.14002
3.11487
3.08517
3.05183
3.02057
2.99511
2.97532
2.95687
2.93969
2.92215
2.90021
2.87085
2.83554
2.80131
2.7715
2.75021
2.73569
2.72282
2.70811
2.69307
2.67568
2.6505
2.61533
2.58725
2.57016
2.5546
2.54119
2.52703
2.50762
2.47861
2.43933
2.39415
2.35582
2.33439
2.32282
2.3162
2.31276
2.31062
2.29296
2.88184
1.77463
1.08906
0.797501
0.64561
0.495917
0.36699
0.358097
0.349641
0.312147
0.298015
0.308614
0.32691
0.356606
0.394587
0.405276
0.428542
0.487986
0.564079
0.634773
0.709647
0.789565
0.854212
0.9055
0.947957
0.989564
1.04004
1.0828
1.09783
1.11794
1.14004
1.1664
1.18164
1.18141
1.18358
1.19865
1.21244
1.22721
1.24599
1.26353
1.27035
1.27511
1.28009
1.28765
1.29153
1.2922
1.29004
1.28883
1.29646
1.31399
1.32504
1.32845
1.33029
1.32609
1.3169
1.31415
1.31463
1.31695
1.32613
1.33414
1.3342
1.3324
1.32871
1.32606
1.32713
1.33132
1.33519
1.33519
1.32926
1.32921
1.37613
1.69824
2.38432
3.77681
6.09055
6.8533
6.72689
6.62291
6.55903
6.51013
6.44627
6.4012
6.35648
6.28505
6.18626
6.08603
5.99601
5.91464
5.86025
5.84045
5.81226
5.7536
5.67154
5.57774
5.4997
5.43891
5.40763
5.38851
5.34475
5.28216
5.20511
5.11639
5.04741
4.9967
4.96178
4.93932
4.91738
4.87822
4.82298
4.75728
4.6905
4.64161
4.6046
4.57227
4.53471
4.4902
4.43446
4.37008
4.31301
4.27064
4.23902
4.20958
4.17738
4.14364
4.10446
4.0618
4.02503
3.99507
3.96614
3.93641
3.90501
3.86774
3.81853
3.76543
3.72113
3.68469
3.65324
3.62362
3.59536
3.56714
3.53621
3.50375
3.47295
3.44478
3.41744
3.38822
3.35577
3.32206
3.29564
3.27065
3.24034
3.20349
3.16947
3.14333
3.11984
3.09626
3.07086
3.04065
3.00547
2.97087
2.94265
2.91763
2.89362
2.86864
2.84582
2.83028
2.81362
2.79456
2.77349
2.7511
2.72917
2.71076
2.69424
2.67464
2.64663
2.61024
2.57918
2.55829
2.54016
2.52153
2.50254
2.48311
2.46346
2.44537
2.42523
2.39702
2.36116
2.33204
2.31784
2.30668
2.29696
2.27721
3.50833
2.50769
1.72569
1.29534
1.07832
0.854781
0.637544
0.605627
0.568728
0.495586
0.468462
0.470001
0.453174
0.421193
0.412024
0.41367
0.4197
0.431256
0.455562
0.490524
0.542285
0.60621
0.682676
0.757353
0.823002
0.871558
0.934718
1.00393
1.03747
1.06636
1.09175
1.12243
1.16133
1.1709
1.17589
1.19483
1.21769
1.24539
1.26266
1.26766
1.26833
1.26141
1.26035
1.26702
1.27393
1.27608
1.27731
1.27726
1.28347
1.29784
1.31387
1.32104
1.32515
1.3283
1.32562
1.31756
1.31541
1.31552
1.32046
1.33081
1.33495
1.33568
1.33385
1.32856
1.32541
1.3271
1.32732
1.32518
1.32816
1.37791
1.71455
2.47378
3.0723
3.2608
4.24298
5.89907
6.58651
6.70729
6.60444
6.4857
6.3972
6.37033
6.35145
6.29465
6.2004
6.08672
5.98324
5.90678
5.84915
5.82495
5.79744
5.74246
5.67631
5.5924
5.50695
5.44471
5.39825
5.37055
5.32782
5.27399
5.21119
5.12471
5.03529
4.97868
4.93672
4.91115
4.90302
4.87893
4.83465
4.78266
4.71358
4.63978
4.59114
4.55644
4.52509
4.48723
4.44217
4.38619
4.32339
4.26955
4.23211
4.20224
4.17461
4.14572
4.11265
4.07165
4.02649
3.98605
3.95364
3.92513
3.89666
3.86439
3.82072
3.76457
3.71513
3.67998
3.65223
3.62792
3.60537
3.58149
3.55415
3.52024
3.47908
3.43754
3.40024
3.36483
3.33268
3.30913
3.29022
3.27108
3.24882
3.21739
3.17509
3.13817
3.11561
3.09712
3.0779
3.05663
3.02932
2.98979
2.93971
2.89586
2.86369
2.84098
2.82775
2.82174
2.82091
2.8146
2.7995
2.77838
2.74929
2.71548
2.68654
2.66135
2.63441
2.60622
2.57896
2.55222
2.5268
2.50366
2.48187
2.46303
2.45079
2.44444
2.43739
2.42354
2.403
2.36834
2.32723
2.29765
2.28175
2.25835
3.98309
3.09522
2.36141
1.82344
1.51141
1.25666
1.01646
0.899987
0.817115
0.700545
0.644111
0.619503
0.587666
0.538602
0.523103
0.517216
0.503182
0.498095
0.503452
0.515385
0.507543
0.505133
0.51654
0.547994
0.606906
0.676031
0.762246
0.869364
0.94872
0.997532
1.0254
1.05403
1.09999
1.12554
1.13512
1.16222
1.20592
1.23653
1.24702
1.25334
1.2565
1.253
1.25317
1.26161
1.27201
1.27753
1.27933
1.28042
1.2847
1.29714
1.31432
1.3224
1.32465
1.32514
1.31911
1.30734
1.3029
1.30263
1.30668
1.32178
1.33673
1.34197
1.34418
1.34249
1.33553
1.32491
1.3181
1.32176
1.36413
1.69536
2.53399
3.07249
3.3053
3.26767
3.36384
4.18894
5.61709
6.38985
6.65752
6.54878
6.43899
6.3541
6.32567
6.28077
6.20634
6.1094
6.00885
5.92957
5.86753
5.82074
5.77795
5.72466
5.66693
5.59723
5.51439
5.447
5.39497
5.3508
5.30441
5.25574
5.2034
5.13316
5.04339
4.97701
4.93446
4.89997
4.87881
4.86157
4.83066
4.79127
4.74346
4.67752
4.60487
4.55158
4.50998
4.46817
4.42408
4.37759
4.32936
4.28076
4.2369
4.20327
4.17393
4.14342
4.1101
4.0722
4.02909
3.98505
3.94891
3.92011
3.89182
3.85819
3.80811
3.74443
3.69887
3.67121
3.64795
3.62957
3.61465
3.59439
3.56979
3.53796
3.48944
3.42697
3.37672
3.34622
3.32527
3.30855
3.29421
3.27755
3.25875
3.23151
3.18499
3.13301
3.10523
3.08779
3.07154
3.054
3.03333
3.00388
2.95494
2.89195
2.84988
2.83248
2.82081
2.81462
2.81711
2.81732
2.80593
2.78943
2.76689
2.72725
2.67626
2.63682
2.61168
2.59241
2.57315
2.55024
2.52093
2.49011
2.46839
2.45533
2.44604
2.44248
2.44073
2.4318
2.41803
2.39753
2.35799
2.30379
2.26743
2.23865
4.37203
3.56035
2.85443
2.36419
1.96777
1.62284
1.38226
1.23405
1.0953
0.959943
0.860886
0.806451
0.746264
0.697458
0.675167
0.651767
0.628477
0.60864
0.589282
0.574194
0.556988
0.532928
0.528282
0.535394
0.54806
0.565184
0.592605
0.647347
0.713609
0.77039
0.822816
0.875509
0.946553
1.03897
1.08946
1.1279
1.18342
1.21759
1.22712
1.23695
1.24221
1.2416
1.2377
1.24274
1.25388
1.26247
1.26907
1.27676
1.2864
1.29746
1.30631
1.3068
1.30646
1.30422
1.29868
1.29551
1.29596
1.29742
1.30523
1.32592
1.34223
1.34558
1.34593
1.34132
1.3277
1.31245
1.31387
1.36059
1.65703
2.55373
3.17619
3.28518
3.31026
3.29075
3.28717
3.36815
4.00932
5.30195
6.33057
6.48378
6.43388
6.33477
6.2776
6.24388
6.19713
6.13817
6.04658
5.94426
5.8674
5.80896
5.7626
5.7232
5.6694
5.60762
5.53293
5.45303
5.39095
5.34318
5.30435
5.26397
5.2157
5.1543
5.06739
4.97656
4.91815
4.8778
4.84698
4.83023
4.81472
4.78494
4.74567
4.69336
4.62012
4.5466
4.4953
4.4548
4.41664
4.38025
4.34325
4.30044
4.24946
4.20042
4.16355
4.13187
4.09974
4.06595
4.02917
3.98822
3.9463
3.91073
3.87965
3.84405
3.79195
3.73609
3.69842
3.67044
3.64687
3.62879
3.61515
3.59778
3.57612
3.54803
3.49919
3.43
3.37353
3.34155
3.32016
3.30295
3.28997
3.27516
3.25719
3.23061
3.18481
3.13333
3.09867
3.07766
3.06052
3.04319
3.02357
2.99846
2.96199
2.91275
2.86696
2.83978
2.82461
2.81478
2.81215
2.81129
2.80287
2.78822
2.76652
2.72626
2.67118
2.625
2.59637
2.57755
2.56102
2.54245
2.51817
2.48873
2.46721
2.45431
2.44378
2.43743
2.43557
2.42951
2.41734
2.4024
2.37626
2.32512
2.26474
2.21975
4.6493
3.91547
3.27114
2.78675
2.37811
1.99273
1.74839
1.55349
1.37128
1.2012
1.10486
1.02105
0.936656
0.863319
0.826905
0.784876
0.749314
0.727999
0.695121
0.663599
0.651832
0.630989
0.604275
0.600524
0.599578
0.595378
0.599511
0.59839
0.596015
0.598644
0.612364
0.648659
0.717507
0.823666
0.949365
1.03333
1.11585
1.16314
1.17686
1.1921
1.21626
1.22698
1.22759
1.22928
1.24035
1.2512
1.26125
1.27157
1.28561
1.29801
1.29945
1.29666
1.2933
1.2902
1.28666
1.28689
1.29049
1.29677
1.30797
1.32625
1.3346
1.33651
1.33714
1.33213
1.31685
1.3124
1.3582
1.71319
2.4596
3.24834
3.35549
3.33045
3.30134
3.28866
3.27732
3.26396
3.31607
3.79987
5.05276
6.16632
6.32891
6.30228
6.23989
6.22465
6.18192
6.12254
6.03942
5.9318
5.85116
5.79566
5.75034
5.70453
5.65017
5.59256
5.52994
5.46054
5.3918
5.33636
5.29244
5.2475
5.19605
5.13667
5.06786
4.99014
4.91931
4.87043
4.83394
4.80587
4.7815
4.75507
4.72066
4.67686
4.622
4.55399
4.49104
4.4501
4.41704
4.38615
4.35387
4.31594
4.2648
4.20008
4.14616
4.11262
4.08396
4.05493
4.02503
3.9928
3.95513
3.91142
3.86682
3.81927
3.76641
3.72678
3.69883
3.67353
3.65198
3.63451
3.61692
3.59601
3.57337
3.54035
3.49063
3.43691
3.39404
3.35743
3.32457
3.30057
3.28315
3.26826
3.24664
3.21246
3.1716
3.13435
3.10175
3.07184
3.04802
3.02906
3.01007
2.98886
2.96502
2.93824
2.90601
2.86885
2.8388
2.82184
2.81032
2.8035
2.79071
2.76874
2.73801
2.69897
2.66089
2.62877
2.59956
2.57393
2.5549
2.53906
2.52223
2.50259
2.48016
2.45946
2.44511
2.43386
2.42446
2.41891
2.4141
2.39901
2.37158
2.32842
2.28143
2.22206
4.87062
4.21422
3.62885
3.15742
2.72781
2.34351
2.08975
1.86401
1.65158
1.45647
1.33409
1.23142
1.12993
1.05495
1.00193
0.951466
0.896524
0.866046
0.832984
0.774735
0.744913
0.726083
0.700173
0.683335
0.671958
0.656395
0.643269
0.634119
0.620621
0.602763
0.601102
0.60456
0.616077
0.645692
0.709128
0.787149
0.86039
0.951873
1.02484
1.07171
1.11995
1.17942
1.22283
1.23478
1.24063
1.25012
1.25578
1.2615
1.27753
1.29286
1.29353
1.28928
1.28166
1.27571
1.27523
1.27835
1.28413
1.29655
1.31625
1.32688
1.32837
1.32766
1.3235
1.31311
1.30995
1.3461
1.72288
2.53298
3.13597
3.38188
3.39054
3.3673
3.32371
3.28706
3.2612
3.23244
3.2202
3.25608
3.62729
4.7872
5.90408
6.14566
6.20486
6.2083
6.14915
6.08183
6.01641
5.93539
5.86265
5.79807
5.73787
5.68146
5.62798
5.57899
5.52528
5.46785
5.40247
5.32856
5.25883
5.20667
5.15879
5.11106
5.06253
5.01136
4.94754
4.87509
4.81205
4.76232
4.72497
4.69469
4.67699
4.6549
4.61749
4.57132
4.50934
4.4547
4.41945
4.38742
4.35262
4.31396
4.26927
4.2087
4.14191
4.09854
4.07056
4.04495
4.02151
3.99512
3.9643
3.91986
3.85134
3.78347
3.74674
3.72263
3.7008
3.68443
3.66933
3.64681
3.6219
3.59511
3.55963
3.51762
3.47394
3.44033
3.41342
3.3855
3.35214
3.31387
3.27565
3.23885
3.2083
3.18182
3.1559
3.13268
3.10801
3.0778
3.04336
3.01477
2.99469
2.97876
2.96451
2.95012
2.93424
2.91224
2.87994
2.84017
2.80463
2.77464
2.74796
2.7218
2.69427
2.6703
2.65071
2.63275
2.61159
2.58476
2.55853
2.54097
2.52742
2.51245
2.49354
2.47213
2.45085
2.43285
2.42083
2.41099
2.39155
2.36717
2.34079
2.31363
2.28727
2.24281
5.0422
4.44681
3.92894
3.47529
3.03164
2.67514
2.39676
2.15177
1.91385
1.72749
1.5791
1.45215
1.32253
1.24167
1.17605
1.10641
1.04598
0.999578
0.961007
0.906489
0.845006
0.814623
0.798147
0.784365
0.769021
0.745508
0.718174
0.706338
0.688694
0.657847
0.643924
0.638696
0.636005
0.639145
0.643949
0.650783
0.663257
0.695603
0.758101
0.843793
0.937139
1.03113
1.1211
1.19519
1.22178
1.22757
1.23428
1.24231
1.25855
1.27676
1.28309
1.28543
1.28217
1.26936
1.26417
1.2664
1.27406
1.29389
1.31984
1.33125
1.33283
1.32876
1.31161
1.30112
1.33932
1.66175
2.60287
3.12458
3.33619
3.38382
3.37826
3.36261
3.33136
3.27596
3.22908
3.20373
3.19254
3.20818
3.23338
3.49892
4.45322
5.58778
6.03573
6.12646
6.09279
6.04126
5.99355
5.94249
5.88575
5.80957
5.72586
5.66286
5.61199
5.56574
5.52305
5.47058
5.4113
5.33366
5.24104
5.1644
5.11477
5.07667
5.05162
5.01415
4.96778
4.90449
4.82336
4.75462
4.70945
4.67495
4.64908
4.64073
4.62228
4.58321
4.52951
4.46271
4.40424
4.36268
4.33097
4.30089
4.2668
4.22155
4.16289
4.10348
4.06524
4.0394
4.02161
3.99965
3.9672
3.92075
3.8468
3.77671
3.74322
3.7206
3.7078
3.70425
3.68545
3.65728
3.6207
3.56935
3.51787
3.48372
3.4621
3.44285
3.42517
3.40515
3.37626
3.32824
3.26246
3.20567
3.17228
3.15245
3.13859
3.12498
3.10647
3.0843
3.05316
3.01678
2.99208
2.97826
2.97042
2.96673
2.95378
2.93374
2.90434
2.85828
2.79981
2.74816
2.70931
2.68266
2.66411
2.65141
2.64226
2.63402
2.62205
2.60554
2.57857
2.54736
2.52648
2.5106
2.49517
2.48022
2.46443
2.44467
2.41923
2.38734
2.35761
2.33044
2.3087
2.29367
2.28183
2.25755
5.18973
4.65485
4.18885
3.74216
3.30716
2.98156
2.688
2.41808
2.16874
1.98593
1.81602
1.67385
1.52885
1.43305
1.35191
1.27448
1.19932
1.12561
1.07137
1.03069
0.977975
0.920109
0.89405
0.884203
0.870534
0.85266
0.821247
0.782434
0.749575
0.720497
0.702239
0.692529
0.683111
0.672303
0.665407
0.656628
0.655439
0.658533
0.66958
0.687833
0.727135
0.799069
0.88353
0.985138
1.0813
1.13551
1.16669
1.19126
1.21497
1.24976
1.27452
1.27814
1.27558
1.26438
1.25155
1.25143
1.25915
1.2825
1.31464
1.32565
1.32607
1.32267
1.30744
1.34756
1.66282
2.52014
3.24648
3.30685
3.32219
3.33319
3.34788
3.33309
3.31005
3.25993
3.20787
3.18498
3.17729
3.19207
3.19929
3.19674
3.3596
4.10572
5.31495
5.86691
5.99495
5.96335
5.95509
5.94548
5.89278
5.82088
5.72509
5.64146
5.5866
5.5389
5.50626
5.46425
5.41167
5.34276
5.24306
5.14486
5.08163
5.03804
5.0092
5.00046
4.96802
4.92403
4.86449
4.7877
4.71869
4.67655
4.64473
4.61633
4.59159
4.56106
4.5216
4.46802
4.4036
4.35022
4.3102
4.27791
4.24854
4.21982
4.18404
4.13505
4.07815
4.03335
4.0015
3.97364
3.9432
3.90548
3.85567
3.80419
3.76148
3.73355
3.71391
3.69573
3.67059
3.64015
3.60083
3.55046
3.5013
3.46961
3.45051
3.44172
3.43391
3.41231
3.38223
3.33228
3.25946
3.19524
3.15984
3.13968
3.12394
3.11555
3.10514
3.08811
3.06906
3.04469
3.01037
2.97886
2.96134
2.94965
2.93956
2.92185
2.89492
2.85581
2.80229
2.74197
2.69576
2.66641
2.65174
2.64515
2.65264
2.65334
2.64123
2.62464
2.59735
2.55835
2.52597
2.50959
2.4996
2.4903
2.47468