/*--------------------------------*- C++ -*----------------------------------*\
  =========                 |
  \\      /  F ield         | OpenFOAM: The Open Source CFD Toolbox
   \\    /   O peration     | Website:  https://openfoam.org
    \\  /    A nd           | Version:  7
     \\/     M anipulation  |
\*---------------------------------------------------------------------------*/
FoamFile
{
    version     2.0;
    format      ascii;
    class       volScalarField;
    location    "2.8";
    object      rho;
}
// * * * * * * * * * * * * * * * * * * * * * * * * * * * * * * * * * * * * * //

dimensions      [1 -3 0 0 0 0 0];

internalField   nonuniform List<scalar> 
4032
(
1.40001
1.40001
1.40001
1.40001
1.40001
1.40001
1.40001
1.40001
1.40001
1.40001
1.40001
1.40848
4.0542
5.47445
5.52288
5.58773
5.64831
5.70656
5.76539
5.8247
5.87898
5.91826
5.94218
5.95927
1.40001
1.40001
1.40001
1.40001
1.40001
1.40001
1.40001
1.40001
1.40001
1.40001
1.40001
1.40086
3.98257
5.45332
5.51239
5.57682
5.63732
5.69437
5.7516
5.80874
5.86047
5.897
5.91821
5.93378
1.40001
1.40001
1.40001
1.40001
1.40001
1.40001
1.40001
1.40001
1.40001
1.40001
1.40001
1.40003
3.83383
5.42549
5.49155
5.55543
5.61612
5.67191
5.72743
5.78243
5.83202
5.8668
5.88587
5.90186
1.40001
1.40001
1.40001
1.40001
1.40001
1.40001
1.40001
1.40001
1.40001
1.40001
1.40001
1.40001
3.61337
5.38282
5.46385
5.52593
5.58692
5.6414
5.69516
5.74782
5.79406
5.82357
5.83498
5.84329
1.40001
1.40001
1.40001
1.40001
1.40001
1.40001
1.40001
1.40001
1.40001
1.40001
1.40001
1.40001
3.32461
5.31638
5.43122
5.48903
5.54751
5.59706
5.64441
5.68925
5.72733
5.752
5.76038
5.7758
1.40001
1.40001
1.40001
1.40001
1.40001
1.40001
1.40001
1.40001
1.40001
1.40001
1.40001
1.40001
2.96974
5.21224
5.4027
5.4526
5.50447
5.54544
5.58362
5.62092
5.65191
5.67185
5.67232
5.6579
1.40001
1.40001
1.40001
1.40001
1.40001
1.40001
1.40001
1.40001
1.40001
1.40001
1.40001
1.40001
2.56125
5.06355
5.40469
5.43594
5.47246
5.49864
5.51977
5.53848
5.54385
5.52864
5.49932
5.48375
1.40001
1.40001
1.40001
1.40001
1.40001
1.40001
1.40001
1.40001
1.40001
1.40001
1.40001
1.40001
2.1004
4.84704
5.41901
5.41855
5.44101
5.45187
5.4536
5.45039
5.42582
5.38849
5.32191
5.2877
1.40001
1.40001
1.40001
1.40001
1.40001
1.40001
1.40001
1.40001
1.40001
1.40001
1.40001
1.40001
1.62245
4.53518
5.45773
5.40898
5.40683
5.39306
5.37045
5.34139
5.27794
5.17184
4.85616
4.00773
1.40001
1.40001
1.40001
1.40001
1.40001
1.40001
1.40001
1.40001
1.40001
1.40001
1.40001
1.40001
1.41154
3.94344
5.3023
5.30018
5.31439
5.30418
5.27163
5.21776
5.1149
4.92798
4.59803
3.69808
1.40001
1.40001
1.40001
1.40001
1.40001
1.40001
1.40001
1.40001
1.40001
1.40001
1.40001
1.40001
1.39996
3.16783
5.12663
5.26949
5.27223
5.24745
5.19748
5.11183
4.97567
4.73947
4.38855
3.56785
1.40001
1.40001
1.40001
1.40001
1.40001
1.40001
1.40001
1.40001
1.40001
1.40001
1.40001
1.40001
1.39999
2.33766
4.84989
5.2338
5.21073
5.18251
5.119
5.00845
4.84511
4.60112
4.21464
3.54246
1.40001
1.40001
1.40001
1.40001
1.40001
1.40001
1.40001
1.40001
1.40001
1.40001
1.40001
1.40001
1.4
1.59156
4.45821
5.28523
5.18154
5.10597
5.02443
4.90509
4.73147
4.4919
4.10318
3.581
1.40001
1.40001
1.40001
1.40001
1.40001
1.40001
1.40001
1.40001
1.40001
1.40001
1.40001
1.40001
1.4
1.40534
3.6264
5.03795
5.03961
5.00728
4.9294
4.80848
4.64283
4.39806
4.04468
3.62735
1.40001
1.40001
1.40001
1.40001
1.40001
1.40001
1.40001
1.40001
1.40001
1.40001
1.40001
1.40001
1.40001
1.39993
2.50589
4.81635
5.02428
4.97926
4.88783
4.75354
4.58518
4.3357
4.02751
3.68006
1.40001
1.40001
1.40001
1.40001
1.40001
1.40001
1.40001
1.40001
1.40001
1.40001
1.40001
1.40001
1.40001
1.39999
1.61428
4.27218
5.0416
4.95557
4.84771
4.69681
4.52993
4.29332
4.02294
3.7208
1.40001
1.40001
1.40001
1.40001
1.40001
1.40001
1.40001
1.40001
1.40001
1.40001
1.40001
1.40001
1.40001
1.4
1.40553
3.16952
4.88909
4.88679
4.79369
4.66291
4.49241
4.27489
4.03187
3.76215
1.40001
1.40001
1.40001
1.40001
1.40001
1.40001
1.40001
1.40001
1.40001
1.40001
1.40001
1.40001
1.40001
1.4
1.39997
1.86142
4.60419
4.95167
4.80391
4.66505
4.48088
4.26627
4.03843
3.79194
1.40001
1.40001
1.40001
1.40001
1.40001
1.40001
1.40001
1.40001
1.40001
1.40001
1.40001
1.40001
1.40001
1.40001
1.4
1.43045
3.56569
4.82508
4.77078
4.64912
4.47425
4.26753
4.04918
3.82222
1.40001
1.40001
1.40001
1.40001
1.40001
1.40001
1.40001
1.40001
1.40001
1.40001
1.40001
1.40001
1.40001
1.40001
1.4
1.40003
2.08175
4.571
4.82608
4.66985
4.49007
4.2903
4.08393
3.87031
1.40001
1.40001
1.40001
1.40001
1.40001
1.40001
1.40001
1.40001
1.40001
1.40001
1.40001
1.40001
1.40001
1.40001
1.4
1.4
1.46672
3.60814
4.74365
4.64762
4.48701
4.30769
4.11523
3.91338
1.40001
1.40001
1.40001
1.40001
1.40001
1.40001
1.40001
1.40001
1.40001
1.40001
1.40001
1.40001
1.40001
1.40001
1.40001
1.4
1.40042
2.12346
4.39309
4.67821
4.50987
4.33695
4.15135
3.96075
1.40001
1.40001
1.40001
1.40001
1.40001
1.40001
1.40001
1.40001
1.40001
1.40001
1.40001
1.40001
1.40001
1.40001
1.40001
1.40001
1.40001
1.47222
3.36393
4.61033
4.51353
4.34808
4.17574
3.99853
1.40001
1.40001
1.40001
1.40001
1.40001
1.40001
1.40001
1.40001
1.40001
1.40001
1.40001
1.40001
1.40001
1.40001
1.40001
1.40001
1.40001
1.40072
1.97783
4.11225
4.54256
4.37057
4.21569
4.04859
1.40001
1.40001
1.40001
1.40001
1.40001
1.40001
1.40001
1.40001
1.40001
1.40001
1.40001
1.40001
1.40001
1.40001
1.40001
1.40001
1.40001
1.40001
1.44368
2.84396
4.41194
4.39808
4.2546
4.09849
1.40001
1.40001
1.40001
1.40001
1.40001
1.40001
1.40001
1.40001
1.40001
1.40001
1.40001
1.40001
1.40001
1.40001
1.40001
1.40001
1.40001
1.40001
1.40049
1.70254
3.65202
4.46613
4.32177
4.16247
1.40001
1.40001
1.40001
1.40001
1.40001
1.40001
1.40001
1.40001
1.40001
1.40001
1.40001
1.40001
1.40001
1.40001
1.40001
1.40001
1.40001
1.40001
1.40001
1.41218
2.23492
4.09097
4.3693
4.22105
1.40001
1.40001
1.40001
1.40001
1.40001
1.40001
1.40001
1.40001
1.40001
1.40001
1.40001
1.40001
1.40001
1.40001
1.40001
1.40001
1.40001
1.40001
1.40001
1.40011
1.49122
2.89758
4.23866
4.27219
1.40001
1.40001
1.40001
1.40001
1.40001
1.40001
1.40001
1.40001
1.40001
1.40001
1.40001
1.40001
1.40001
1.40001
1.40001
1.40001
1.40001
1.40001
1.40001
1.40001
1.40176
1.71884
3.45499
4.2666
1.40001
1.40001
1.40001
1.40001
1.40001
1.40001
1.40001
1.40001
1.40001
1.40001
1.40001
1.40001
1.40001
1.40001
1.40001
1.40001
1.40001
1.40001
1.40001
1.40001
1.40001
1.41424
2.08223
3.80195
1.40001
1.40001
1.40001
1.40001
1.40001
1.40001
1.40001
1.40001
1.40001
1.40001
1.40001
1.40001
1.40001
1.40001
1.40001
1.40001
1.40001
1.40001
1.40001
1.40001
1.40001
1.40015
1.46109
2.49205
1.40001
1.40001
1.40001
1.40001
1.40001
1.40001
1.40001
1.40001
1.40001
1.40001
1.40001
1.40001
1.40001
1.40001
1.40001
1.40001
1.40001
1.40001
1.40001
1.40001
1.40001
1.40001
1.40108
1.56083
1.40001
1.40001
1.40001
1.40001
1.40001
1.40001
1.40001
1.40001
1.40001
1.40001
1.40001
1.40001
1.40001
1.40001
1.40001
1.40001
1.40001
1.40001
1.40001
1.40001
1.40001
1.40001
1.40001
1.40471
1.40001
1.40001
1.40001
1.40001
1.40001
1.40001
1.40001
1.40001
1.40001
1.40001
1.40001
1.40001
1.40001
1.40001
1.40001
1.40001
1.40001
1.40001
1.40001
1.40001
1.40001
1.40001
1.40001
1.40004
1.40001
1.40001
1.40001
1.40001
1.40001
1.40001
1.40001
1.40001
1.40001
1.40001
1.40001
1.40001
1.40001
1.40001
1.40001
1.40001
1.40001
1.40001
1.40001
1.40001
1.40001
1.40001
1.40001
1.40001
1.40001
1.40001
1.40001
1.40001
1.40001
1.40001
1.40001
1.40001
1.40001
1.40001
1.40001
1.40001
1.40001
1.40001
1.40001
1.40001
1.40001
1.40001
1.40001
1.40001
1.40001
1.40001
1.40001
1.40001
1.40001
1.40001
1.40001
1.40001
1.40001
1.40001
1.40001
1.40001
1.40001
1.40001
1.40001
1.40001
1.40001
1.40001
1.40001
1.40001
1.40001
1.40001
1.40001
1.40001
1.40001
1.40001
1.40001
1.40001
1.40001
1.40001
1.40001
1.40001
1.40001
1.40001
1.40001
1.40001
1.40001
1.40001
1.40001
1.40001
1.40001
1.40001
1.40001
1.40001
1.40001
1.40001
1.40001
1.40001
1.40001
1.40001
1.40001
1.40001
1.40001
1.40001
1.40001
1.40001
1.40001
1.40001
1.40001
1.40001
1.40001
1.40001
1.40001
1.40001
1.40001
1.40001
1.40001
1.40001
1.40001
1.40001
1.40001
1.40001
1.40001
1.40001
1.40001
1.40001
1.40001
1.40001
1.40001
1.40001
1.40001
1.40001
1.40001
1.40001
1.40001
1.40001
1.40001
1.40001
1.40001
1.40001
1.40001
1.40001
1.40001
1.40001
1.40001
1.40001
1.40001
1.40001
1.40001
1.40001
1.3228
0.561188
0.221844
0.157256
0.187479
0.272799
0.377029
0.48459
0.604453
0.702921
0.771903
0.83374
0.895772
0.944301
0.975346
1.00983
1.03574
1.02738
1.0252
1.0331
1.03962
1.0416
1.04227
1.04672
1.05306
1.06787
1.08974
1.09788
1.09747
1.08677
1.07048
1.06703
1.07131
1.09641
1.99453
3.19055
3.33135
3.28135
3.23858
3.19973
3.18957
3.18056
3.16968
3.13524
3.09551
3.05917
3.02622
2.99337
2.95973
2.92566
2.89194
2.8586
2.82101
2.78099
2.73868
2.696
2.65836
2.62529
2.59858
2.57686
2.54893
2.51681
2.4807
2.44177
2.40639
2.37678
2.35116
2.33074
2.31405
2.29482
2.27177
2.23723
2.18066
2.12383
2.09141
2.07013
2.05158
2.03759
2.02962
2.01873
2.00286
1.98343
1.94881
1.90106
1.87133
1.8552
1.84117
1.83025
1.82123
1.80829
1.79294
1.76721
1.72175
1.68024
1.66522
1.64631
1.96656
1.2531
0.885807
0.619006
0.573187
0.588061
0.567313
0.553609
0.560365
0.59781
0.649101
0.698773
0.762692
0.839513
0.897903
0.94872
1.00356
1.01912
1.02526
1.03775
1.05555
1.06456
1.07368
1.07824
1.07779
1.08058
1.09095
1.10525
1.11026
1.10949
1.1038
1.0943
1.10378
1.19752
1.95156
3.21487
3.38937
3.31623
3.243
3.21147
3.19441
3.19197
3.1849
3.1538
3.1172
3.08003
3.04194
3.00563
2.97388
2.9447
2.90988
2.87133
2.83119
2.79229
2.75354
2.71525
2.67747
2.64023
2.6077
2.57991
2.55682
2.52973
2.49856
2.4645
2.4281
2.39252
2.36079
2.33481
2.31157
2.28934
2.26628
2.23758
2.19696
2.15037
2.10951
2.08104
2.06115
2.04573
2.03306
2.01691
1.99904
1.97865
1.95201
1.91596
1.88232
1.86107
1.84643
1.83336
1.81941
1.80428
1.7875
1.76618
1.73304
1.69343
1.66863
1.64614
2.50915
1.79628
1.3876
1.12546
0.965295
0.873817
0.772517
0.678428
0.658158
0.660911
0.674226
0.70882
0.747576
0.797112
0.856131
0.905172
0.965743
1.02939
1.06283
1.08709
1.11252
1.12097
1.13175
1.14671
1.15555
1.15452
1.14878
1.13899
1.13469
1.13412
1.14058
1.15763
1.26024
1.59602
2.02931
2.87577
3.41304
3.48562
3.42973
3.39958
3.33982
3.3034
3.26838
3.23765
3.21283
3.17653
3.12612
3.07686
3.0373
3.00817
2.97657
2.93726
2.89144
2.84222
2.79809
2.76012
2.72539
2.69081
2.65276
2.61318
2.58123
2.55276
2.52643
2.49945
2.47082
2.43876
2.40156
2.36191
2.3257
2.2947
2.2649
2.23474
2.20788
2.18083
2.15067
2.11804
2.08902
2.06527
2.04372
2.02271
2.00048
1.97586
1.95176
1.9308
1.90911
1.88428
1.86042
1.84073
1.82287
1.80414
1.78327
1.76074
1.73888
1.71393
1.68663
1.65271
2.81057
2.27601
1.8452
1.51923
1.31816
1.16819
1.04936
0.944844
0.895832
0.854777
0.805708
0.768563
0.756895
0.764564
0.785566
0.814432
0.866805
0.948832
1.01445
1.04932
1.08359
1.10682
1.12471
1.15584
1.19945
1.21106
1.20903
1.19577
1.17883
1.17397
1.18588
1.28263
1.6196
2.11086
2.21804
2.38524
2.87831
3.32319
3.51915
3.55585
3.49049
3.41941
3.34339
3.30496
3.28354
3.25082
3.20428
3.15
3.10749
3.07162
3.03589
2.99833
2.95609
2.90649
2.85527
2.8105
2.77226
2.73691
2.70127
2.66381
2.62854
2.5994
2.57186
2.54324
2.51363
2.48189
2.44478
2.4012
2.35759
2.31914
2.28569
2.25865
2.23695
2.21583
2.19288
2.16477
2.13057
2.09592
2.06578
2.03815
2.00972
1.98349
1.96563
1.95118
1.93617
1.91695
1.88948
1.86023
1.83551
1.81163
1.78616
1.76321
1.7471
1.73152
1.71461
1.67631
3.03507
2.59393
2.21008
1.87213
1.65601
1.47303
1.29347
1.1689
1.08327
1.02066
0.969111
0.915231
0.859489
0.806624
0.799582
0.803628
0.8177
0.849468
0.896325
0.935268
0.978141
1.03611
1.08045
1.12387
1.17566
1.20255
1.20188
1.19926
1.19826
1.20772
1.30973
1.66482
2.08521
2.34121
2.31376
2.28069
2.35497
2.72075
3.21798
3.47184
3.57713
3.52269
3.41933
3.35414
3.32445
3.29325
3.25847
3.21581
3.16844
3.12329
3.08107
3.043
3.00391
2.96019
2.9117
2.86338
2.81872
2.77734
2.73837
2.70146
2.66976
2.64335
2.61686
2.58907
2.55874
2.52392
2.48205
2.43167
2.38054
2.34294
2.31739
2.297
2.27783
2.25834
2.23709
2.2107
2.17466
2.13019
2.08749
2.05297
2.02644
2.00825
1.99396
1.98055
1.96555
1.94769
1.92059
1.88286
1.84829
1.82009
1.79563
1.77747
1.76387
1.75063
1.73848
1.70687
3.19273
2.82174
2.47591
2.16308
1.92077
1.73031
1.56068
1.42462
1.29693
1.17395
1.11663
1.0826
1.0382
0.971784
0.903632
0.86467
0.857308
0.861734
0.86355
0.868824
0.880441
0.912782
0.962927
1.00656
1.05885
1.12603
1.16248
1.17958
1.19827
1.2961
1.68314
2.14445
2.33043
2.31591
2.29462
2.2821
2.28443
2.33884
2.61537
3.06514
3.44181
3.48609
3.44531
3.38302
3.35223
3.31778
3.2794
3.23763
3.18621
3.13942
3.09894
3.06101
3.02393
2.98516
2.94165
2.89527
2.85025
2.8071
2.76478
2.72465
2.69394
2.66852
2.64288
2.61655
2.5883
2.55595
2.51673
2.46655
2.40862
2.36912
2.34767
2.32838
2.30958
2.29
2.26882
2.24315
2.20794
2.16063
2.10985
2.07317
2.05287
2.03729
2.0235
2.01043
1.99562
1.97866
1.95167
1.90433
1.85535
1.82708
1.81117
1.79825
1.7862
1.77405
1.76272
1.73449
3.32032
2.99715
2.673
2.39134
2.16264
1.94511
1.75134
1.62803
1.5086
1.38717
1.26209
1.19465
1.15698
1.1111
1.05271
0.981054
0.915006
0.888592
0.881242
0.885057
0.899619
0.909885
0.903992
0.898446
0.91323
0.959205
1.02871
1.09956
1.21291
1.58868
2.0838
2.30866
2.34732
2.3155
2.29668
2.30008
2.29872
2.29368
2.31931
2.48243
2.91211
3.27432
3.39598
3.39367
3.3884
3.34942
3.29737
3.2525
3.19467
3.14323
3.10226
3.06405
3.02948
2.99292
2.95427
2.9156
2.87758
2.83773
2.79248
2.74369
2.70583
2.67949
2.65459
2.62974
2.60426
2.57573
2.54154
2.49671
2.43818
2.39034
2.3665
2.34664
2.32648
2.30523
2.28223
2.25584
2.22288
2.18062
2.1352
2.10375
2.08362
2.06592
2.04974
2.03458
2.019
2.00015
1.96873
1.91624
1.86583
1.84194
1.82803
1.81533
1.80359
1.79296
1.78298
1.75643
3.4116
3.1187
2.82671
2.5701
2.35199
2.12653
1.93055
1.7927
1.66795
1.55
1.44553
1.34679
1.25682
1.21464
1.18245
1.13263
1.05845
0.985381
0.962599
0.954998
0.947258
0.937353
0.921457
0.901828
0.886843
0.891725
0.914766
0.992315
1.33195
1.8515
2.11205
2.23511
2.26809
2.25348
2.24416
2.2764
2.30636
2.30039
2.27913
2.26492
2.36072
2.68668
3.1058
3.29572
3.35614
3.37194
3.3162
3.26852
3.21281
3.16398
3.11484
3.06095
3.01385
2.98023
2.95337
2.93101
2.90342
2.87145
2.83095
2.77467
2.71602
2.67997
2.65627
2.63503
2.61363
2.59051
2.56357
2.52721
2.47226
2.40791
2.37265
2.35206
2.33223
2.31104
2.28781
2.26202
2.23331
2.20113
2.16577
2.13231
2.10766
2.08862
2.07125
2.05327
2.03227
2.00402
1.96683
1.92339
1.88468
1.85886
1.84193
1.82838
1.81617
1.80602
1.80025
1.77685
3.48449
3.22026
2.954
2.70556
2.49977
2.29607
2.10121
1.94607
1.81133
1.68491
1.59561
1.51261
1.40355
1.30546
1.26713
1.23548
1.18889
1.13584
1.07961
1.02353
0.979476
0.956271
0.951243
0.939598
0.926132
0.918123
0.961234
1.21606
1.65981
1.86944
1.97834
2.03054
2.06076
2.10532
2.1634
2.21331
2.25724
2.25644
2.24263
2.23252
2.21386
2.26754
2.51472
2.93543
3.20149
3.33623
3.3251
3.28222
3.24065
3.19733
3.14553
3.07173
3.0109
2.97808
2.9512
2.93598
2.92286
2.89614
2.864
2.81617
2.74624
2.6894
2.66069
2.63911
2.6198
2.60129
2.57872
2.55053
2.50754
2.4407
2.37946
2.34993
2.3299
2.3107
2.28986
2.26788
2.2464
2.22418
2.19616
2.15944
2.12852
2.11017
2.09113
2.06798
2.03837
2.00274
1.9663
1.9356
1.9081
1.88159
1.86123
1.84714
1.83391
1.81963
1.80749
1.77817
3.54092
3.29828
3.05383
2.82995
2.62434
2.41979
2.24561
2.10337
1.9597
1.8065
1.7125
1.64196
1.55647
1.46142
1.36989
1.30199
1.27082
1.24515
1.20526
1.15402
1.08257
1.01879
1.00504
0.996461
0.98084
1.0086
1.23124
1.6239
1.88597
1.90161
1.89416
1.88667
1.89149
1.90126
1.94557
1.99931
2.06139
2.1059
2.13698
2.16462
2.17182
2.18364
2.22232
2.37769
2.69275
3.06531
3.2186
3.26244
3.27574
3.23068
3.18612
3.10712
3.02802
2.98477
2.95586
2.93924
2.93
2.90849
2.88055
2.8448
2.79027
2.72228
2.67252
2.64612
2.62547
2.60623
2.58492
2.56066
2.52895
2.47853
2.40941
2.35719
2.32876
2.30774
2.29055
2.27608
2.26111
2.24441
2.22264
2.18902
2.14422
2.10614
2.08064
2.05755
2.03208
2.00295
1.97714
1.9546
1.92971
1.90231
1.87922
1.863
1.84802
1.8319
1.81451
1.77606
3.59368
3.36869
3.14587
2.937
2.73906
2.54582
2.37158
2.22548
2.0891
1.95516
1.84565
1.73881
1.65147
1.58533
1.51099
1.43454
1.35488
1.29627
1.27154
1.24745
1.2052
1.14453
1.07861
1.04806
1.06554
1.26104
1.69393
1.96414
1.97178
1.93843
1.8978
1.87417
1.87529
1.87898
1.8661
1.84814
1.8558
1.8869
1.93311
1.98816
2.05247
2.10151
2.12522
2.13713
2.20821
2.45581
2.81877
3.08123
3.21462
3.23421
3.21284
3.15268
3.07918
3.01235
2.97286
2.94681
2.9292
2.9117
2.8864
2.85712
2.82007
2.76962
2.70905
2.66093
2.63298
2.61076
2.5885
2.56486
2.53776
2.50238
2.45098
2.38627
2.33815
2.3141
2.2978
2.28453
2.27485
2.26088
2.24237
2.21313
2.16102
2.10685
2.07451
2.05086
2.02906
2.01162
1.99679
1.9792
1.95511
1.92273
1.89077
1.86783
1.84992
1.83315
1.8148
1.77516
3.65442
3.43636
3.22846
3.03126
2.83738
2.65551
2.49432
2.34279
2.19584
2.07502
1.97288
1.86442
1.75095
1.66617
1.60533
1.54403
1.47683
1.41247
1.33679
1.28811
1.271
1.23718
1.18035
1.19096
1.37652
1.80434
2.09692
2.09596
2.0481
1.99902
1.96716
1.947
1.92457
1.9014
1.87484
1.84346
1.82083
1.81022
1.8044
1.81206
1.84443
1.89461
1.93806
1.97241
1.98217
2.02514
2.21836
2.55281
2.93145
3.10854
3.17952
3.18467
3.13323
3.07303
3.00425
2.95194
2.92463
2.90312
2.88226
2.85839
2.83182
2.7989
2.75326
2.69502
2.64628
2.6155
2.59008
2.56516
2.53993
2.51255
2.47772
2.42807
2.37076
2.3314
2.31044
2.29469
2.28181
2.26893
2.25228
2.22721
2.17663
2.10985
2.06999
2.05016
2.03636
2.02525
2.01446
2.00059
1.98184
1.9484
1.90042
1.86782
1.8514
1.83329
1.81326
1.77602
3.70418
3.49639
3.30268
3.11558
2.92774
2.75912
2.6053
2.45512
2.30836
2.1865
2.07414
1.97074
1.86383
1.78024
1.70056
1.60983
1.55542
1.51605
1.45468
1.37706
1.31783
1.28507
1.31053
1.5248
1.97867
2.27683
2.25951
2.19948
2.14064
2.0972
2.06802
2.03631
2.00224
1.96765
1.93295
1.89807
1.85639
1.81348
1.79308
1.78872
1.78585
1.78469
1.78587
1.79437
1.80427
1.80395
1.83249
1.94958
2.24989
2.62529
2.95568
3.09677
3.11524
3.11118
3.05108
2.97726
2.92131
2.89183
2.87224
2.85809
2.83583
2.8104
2.77827
2.72903
2.66779
2.62258
2.59185
2.56509
2.54005
2.51587
2.48989
2.45696
2.41295
2.36712
2.33209
2.30611
2.28669
2.27067
2.25463
2.23071
2.18672
2.12556
2.08114
2.06174
2.04904
2.03734
2.02638
2.01409
1.99897
1.97107
1.92085
1.87114
1.84077
1.82058
1.80288
1.77544
3.76164
3.5657
3.38137
3.19881
3.01923
2.8612
2.70846
2.55557
2.41593
2.29691
2.17889
2.06464
1.96162
1.88003
1.80089
1.71836
1.62895
1.57399
1.53379
1.47158
1.3998
1.41563
1.64551
2.12293
2.44917
2.44114
2.37004
2.3071
2.25626
2.2076
2.16426
2.12663
2.09135
2.0549
2.01621
1.97441
1.92703
1.87669
1.83471
1.80283
1.78094
1.76721
1.75976
1.75566
1.74229
1.71291
1.68638
1.68517
1.73034
1.91228
2.26148
2.66454
2.91938
3.0456
3.04233
3.01297
2.94268
2.8944
2.87418
2.85924
2.83564
2.8125
2.78521
2.74342
2.68484
2.62992
2.59302
2.5655
2.54115
2.51791
2.49438
2.46887
2.43789
2.39878
2.35778
2.32339
2.29543
2.2704
2.24575
2.21908
2.18694
2.14911
2.11434
2.08433
2.06045
2.04429
2.03196
2.02144
2.00721
1.98227
1.94039
1.88056
1.83832
1.81412
1.80012
1.78368
3.81624
3.63696
3.45802
3.27714
3.11149
2.95771
2.80462
2.64985
2.52099
2.39624
2.27725
2.15751
2.06538
1.97223
1.88109
1.80603
1.73275
1.66257
1.59339
1.53141
1.55305
1.81045
2.29711
2.60985
2.61236
2.54627
2.47967
2.42556
2.36814
2.31154
2.2626
2.21998
2.18053
2.14164
2.1016
2.05979
2.0139
1.9609
1.90636
1.86227
1.82962
1.80214
1.77705
1.75517
1.73547
1.71529
1.68916
1.65371
1.63375
1.63725
1.69107
1.90073
2.24995
2.65353
2.87143
2.95926
2.93343
2.90667
2.8936
2.86601
2.84073
2.81471
2.78159
2.74092
2.69265
2.64165
2.60108
2.5712
2.54532
2.52046
2.4956
2.47099
2.44486
2.41241
2.37428
2.3382
2.30663
2.27547
2.24293
2.21082
2.18294
2.16037
2.13739
2.11075
2.08356
2.0586
2.03508
2.01256
1.99563
1.98062
1.9506
1.89699
1.84553
1.82013
1.81145
1.79778
3.87725
3.70883
3.53667
3.36228
3.20266
3.04994
2.89455
2.74785
2.62033
2.49419
2.36976
2.2533
2.16115
2.06637
1.97536
1.88547
1.81972
1.74862
1.67153
1.70171
1.99351
2.50096
2.77874
2.77759
2.71345
2.64743
2.59702
2.54117
2.47659
2.41011
2.35291
2.30598
2.26423
2.22442
2.18473
2.14389
2.09994
2.04917
1.99262
1.94184
1.90177
1.86714
1.83422
1.80058
1.7687
1.73892
1.70787
1.66643
1.62997
1.62139
1.61271
1.61245
1.66746
1.86695
2.22025
2.58781
2.80392
2.8233
2.85866
2.86815
2.84571
2.81175
2.77348
2.73421
2.6926
2.64714
2.60934
2.58158
2.55687
2.53217
2.50614
2.47745
2.44681
2.416
2.38544
2.35343
2.31765
2.28076
2.24545
2.21313
2.18623
2.16399
2.14458
2.12447
2.09918
2.07021
2.04137
2.01394
1.98891
1.96194
1.93332
1.90225
1.86676
1.83834
1.82708
1.81074
3.93694
3.77102
3.60441
3.44521
3.28865
3.1313
2.97558
2.84287
2.71297
2.58737
2.4565
2.35361
2.25262
2.15779
2.06053
1.97573
1.90156
1.82162
1.87256
2.23284
2.80893
2.99887
2.94205
2.85901
2.7993
2.75833
2.70979
2.65384
2.58919
2.5119
2.43982
2.38704
2.34387
2.30342
2.26385
2.22375
2.1806
2.13056
2.07096
2.00908
1.95826
1.92019
1.88892
1.85844
1.82654
1.79364
1.75694
1.71625
1.67325
1.63801
1.61066
1.59661
1.59127
1.58896
1.64271
1.82778
2.18792
2.49682
2.74083
2.81664
2.81506
2.80886
2.77527
2.73485
2.69379
2.64533
2.60602
2.58282
2.56222
2.53957
2.51378
2.48558
2.45752
2.42776
2.3882
2.33819
2.29752
2.27107
2.24738
2.22353
2.20059
2.17659
2.14865
2.11793
2.09216
2.07052
2.04735
2.02091
1.99015
1.9575
1.92847
1.90561
1.88438
1.86351
1.84794
1.82373
4.00159
3.83441
3.67141
3.51806
3.36608
3.20985
3.06451
2.93245
2.80397
2.67417
2.55323
2.45086
2.34684
2.24809
2.14415
2.06344
1.98507
2.05759
2.47397
3.07598
3.27436
3.1872
3.04982
2.95941
2.91298
2.87136
2.81768
2.75937
2.69453
2.61521
2.52999
2.46541
2.41764
2.37525
2.33477
2.29492
2.25402
2.2089
2.15621
2.09649
2.03709
1.98565
1.94315
1.90793
1.87811
1.85001
1.8186
1.78152
1.74006
1.69534
1.65342
1.62116
1.59671
1.57466
1.5665
1.56674
1.62127
1.8026
2.13017
2.44465
2.65007
2.74694
2.76466
2.75758
2.7194
2.66861
2.62992
2.59493
2.55983
2.53142
2.50711
2.48628
2.46613
2.43868
2.39234
2.335
2.29259
2.26556
2.24364
2.22501
2.2074
2.18545
2.1557
2.12252
2.09168
2.06365
2.03933
2.01771
1.99474
1.96983
1.94079
1.91226
1.89283
1.87636
1.86125
1.83288
4.0517
3.88993
3.73619
3.5835
3.43075
3.28469
3.15332
3.01954
2.88908
2.75714
2.65059
2.54079
2.43778
2.32525
2.23121
2.15324
2.24815
2.73486
3.27525
3.49961
3.44066
3.32691
3.20188
3.09672
3.03592
2.97739
2.91629
2.85485
2.79041
2.71631
2.63072
2.5521
2.49351
2.44509
2.39993
2.35614
2.31274
2.26824
2.22095
2.17015
2.1169
2.06352
2.012
1.96468
1.92355
1.88694
1.85331
1.82156
1.78973
1.75288
1.7136
1.67451
1.63704
1.60398
1.57454
1.55272
1.54411
1.54148
1.58367
1.75757
2.04577
2.37796
2.56191
2.67815
2.6912
2.69016
2.67276
2.62142
2.57618
2.54789
2.52256
2.49275
2.45931
2.42371
2.38407
2.3363
2.295
2.26984
2.24986
2.22958
2.20826
2.18602
2.16015
2.12339
2.08507
2.06159
2.0459
2.03146
2.01599
1.99531
1.96399
1.92492
1.8917
1.87499
1.86499
1.84419
4.12916
3.96535
3.81513
3.66398
3.51005
3.37228
3.23863
3.1059
2.9688
2.85153
2.74068
2.6317
2.51411
2.40626
2.33756
2.49324
3.08675
3.57872
3.71518
3.654
3.55591
3.46371
3.36
3.25029
3.15786
3.07908
3.00933
2.94379
2.87855
2.80998
2.73515
2.6575
2.58646
2.52435
2.4677
2.41419
2.36361
2.31612
2.27119
2.22771
2.18421
2.13896
2.09057
2.04021
1.99155
1.94731
1.90702
1.86913
1.83257
1.796
1.75998
1.72497
1.69082
1.6556
1.61848
1.58272
1.54696
1.52768
1.52186
1.51445
1.54939
1.70984
2.00131
2.31701
2.48328
2.5876
2.62364
2.61775
2.60556
2.57753
2.54302
2.50313
2.46101
2.41818
2.3741
2.33267
2.29974
2.27505
2.25326
2.23227
2.21395
2.19861
2.17312
2.12961
2.08829
2.06172
2.04018
2.0212
2.00218
1.97998
1.95568
1.92564
1.89694
1.87942
1.86507
1.8327
4.215
4.05433
3.89662
3.74008
3.59035
3.45417
3.3187
3.18101
3.04934
2.93641
2.82451
2.70354
2.59008
2.52526
2.74415
3.46596
4.0027
3.96202
3.85574
3.74011
3.65411
3.5884
3.49662
3.39444
3.29365
3.1954
3.10706
3.03141
2.96132
2.89344
2.82716
2.76196
2.6965
2.62909
2.55902
2.48854
2.42264
2.36553
2.31753
2.27574
2.23676
2.19724
2.15389
2.1052
2.05353
2.00423
1.95945
1.91867
1.87976
1.8403
1.7997
1.75981
1.72309
1.68789
1.65525
1.621
1.58405
1.55179
1.51943
1.50107
1.49495
1.48487
1.52235
1.65719
1.93807
2.22281
2.45413
2.50733
2.54703
2.55929
2.5438
2.5156
2.46618
2.41025
2.36929
2.3369
2.3076
2.28168
2.26015
2.23999
2.21679
2.18717
2.15263
2.12191
2.09682
2.06872
2.04146
2.0198
2.00056
1.9789
1.94843
1.91866
1.90425
1.8905
1.87266
1.83265
4.2355
4.14182
3.97882
3.81629
3.67136
3.53447
3.39601
3.2562
3.13334
3.02191
2.89696
2.77893
2.74385
3.04736
3.76715
4.34191
4.3604
4.18997
3.9876
3.84514
3.76275
3.70233
3.62189
3.52991
3.43714
3.33781
3.22845
3.12625
3.04156
2.96902
2.90492
2.84622
2.78872
2.72765
2.65849
2.58065
2.5017
2.43336
2.37911
2.33363
2.29164
2.24966
2.20475
2.15458
2.09987
2.04665
1.99948
1.95844
1.92102
1.88481
1.84753
1.80719
1.76301
1.71897
1.68168
1.64881
1.61963
1.58966
1.55513
1.52347
1.49201
1.46758
1.45369
1.4403
1.4803
1.60647
1.87177
2.1449
2.36018
2.48517
2.49552
2.48156
2.44495
2.3986
2.36188
2.33418
2.30819
2.29069
2.27778
2.25692
2.22519
2.18392
2.14768
2.11929
2.08684
2.06221
2.04617
2.027
2.00511
1.97795
1.94744
1.92394
1.90274
1.87495
1.84727
1.81215
3.99277
4.19358
4.07858
3.90652
3.7627
3.62072
3.47902
3.3395
3.21903
3.10326
2.96908
3.00452
3.4374
4.18873
4.59311
4.61386
4.48319
4.33676
4.17916
4.0193
3.90284
3.81824
3.73979
3.65059
3.55869
3.46115
3.35228
3.23828
3.13822
3.05725
2.98805
2.92522
2.86585
2.80599
2.73961
2.66229
2.5781
2.50067
2.43976
2.39167
2.34888
2.30603
2.25882
2.20394
2.14177
2.08022
2.02783
1.98511
1.94827
1.91475
1.88121
1.84419
1.80156
1.75582
1.71333
1.67811
1.64939
1.62118
1.59481
1.56653
1.52989
1.49158
1.45344
1.42404
1.40725
1.39458
1.42655
1.56267
1.79856
2.08923
2.27833
2.39273
2.40878
2.40377
2.387
2.35389
2.32248
2.29674
2.26592
2.23178
2.20191
2.17744
2.15427
2.12529
2.09159
2.05929
2.02929
2.00434
1.98137
1.96005
1.94297
1.92676
1.90517
1.87378
1.84009
1.80383
2.89225
4.06092
4.1444
4.01022
3.85257
3.70937
3.57207
3.41975
3.31059
3.19389
3.30261
3.89345
4.73609
4.93348
4.88262
4.70908
4.58449
4.48949
4.3669
4.2121
4.07268
3.9617
3.86308
3.76815
3.67281
3.5729
3.4647
3.35124
3.24695
3.16009
3.08446
3.01336
2.94397
2.87529
2.80466
2.72793
2.64474
2.56219
2.49076
2.43459
2.38907
2.34729
2.30291
2.24994
2.18563
2.11668
2.05795
2.01263
1.97112
1.92874
1.89035
1.85915
1.82804
1.7893
1.74537
1.70271
1.66306
1.62577
1.59622
1.5737
1.55355
1.52745
1.48799
1.44678
1.40838
1.38335
1.36686
1.35949
1.3905
1.52083
1.73853
2.008
2.16855
2.29952
2.34394
2.34398
2.33909
2.32018
2.27149
2.22477
2.19544
2.16801
2.13749
2.10711
2.07947
2.05246
2.02308
1.99542
1.97265
1.95597
1.94315
1.92994
1.90959
1.86916
1.83667
1.81352
1.72017
3.2183
4.07799
4.08539
3.95873
3.80599
3.63986
3.52285
3.45554
3.70141
4.40907
5.17225
5.37563
5.19608
5.00494
4.85405
4.74684
4.65032
4.52653
4.37406
4.22818
4.10823
3.99825
3.89162
3.78635
3.68021
3.57058
3.45837
3.35132
3.25659
3.17229
3.09308
3.01479
2.93566
2.85606
2.777
2.69745
2.6163
2.53847
2.47227
2.41829
2.37276
2.3308
2.28499
2.22713
2.15875
2.08986
2.03695
1.99841
1.96016
1.9178
1.8764
1.83709
1.80176
1.76449
1.71949
1.67547
1.64307
1.61715
1.58904
1.5566
1.52252
1.4918
1.46092
1.42088
1.39326
1.36921
1.3435
1.32657
1.31897
1.34469
1.45726
1.6945
1.97142
2.13183
2.21877
2.27751
2.27617
2.26051
2.2286
2.19978
2.16922
2.13611
2.10506
2.0764
2.04022
2.00236
1.9821
1.97219
1.96704
1.95909
1.94548
1.92003
1.87424
1.83146
1.79588
1.4154
1.92282
3.4507
4.06037
4.0434
3.90992
3.72014
3.79181
4.28205
5.11212
5.55043
5.71732
5.60292
5.40051
5.20303
5.06476
4.94791
4.82344
4.6853
4.53205
4.38184
4.24884
4.12756
4.01061
3.89499
3.77889
3.66197
3.54623
3.4347
3.33173
3.2387
3.15204
3.0678
2.98367
2.89864
2.81413
2.73524
2.66196
2.58624
2.51184
2.45191
2.39817
2.34241
2.2897
2.24184
2.18892
2.12634
2.06314
2.01431
1.98418
1.95497
1.91409
1.86438
1.80764
1.76287
1.73971
1.71828
1.69006
1.65646
1.61969
1.58227
1.54333
1.50167
1.46176
1.4291
1.4022
1.37569
1.34784
1.31781
1.30002
1.28689
1.28649
1.32171
1.43948
1.67452
1.90701
2.14109
2.19085
2.17937
2.17328
2.15338
2.12953
2.11791
2.10112
2.07354
2.03337
1.99561
1.97939
1.9706
1.95938
1.94325
1.92461
1.90134
1.87091
1.83277
1.79439
1.40017
1.438
2.13132
3.63207
3.99781
3.96157
4.21947
5.00504
5.86527
6.05324
5.99521
5.88639
5.73942
5.57366
5.38868
5.23611
5.10704
4.97049
4.82276
4.66432
4.50547
4.35788
4.22341
4.09737
3.97591
3.85616
3.73615
3.61668
3.50025
3.39061
3.29023
3.19782
3.10992
3.02322
2.93533
2.84581
2.75576
2.67367
2.61496
2.55945
2.49326
2.42981
2.36462
2.29824
2.23649
2.1768
2.1278
2.0841
2.03587
1.99207
1.94802
1.89605
1.8459
1.80867
1.77927
1.74378
1.7044
1.67013
1.63653
1.60295
1.56999
1.54016
1.51461
1.48812
1.45898
1.4242
1.38718
1.35259
1.31813
1.29481
1.28258
1.27013
1.25893
1.26163
1.30433
1.42605
1.65878
1.87347
2.04884
2.13048
2.12993
2.11313
2.09211
2.06216
2.03556
2.01852
2.00509
1.99338
1.9806
1.96198
1.93673
1.91195
1.88892
1.86124
1.83308
1.79998
1.40001
1.40057
1.47569
2.38809
3.43461
4.50805
5.90075
6.3662
6.46725
6.35542
6.16724
6.00356
5.87144
5.72516
5.54136
5.374
5.23691
5.09673
4.94239
4.77748
4.60868
4.44883
4.30558
4.17512
4.05116
3.93034
3.81107
3.69307
3.57737
3.46652
3.36285
3.26597
3.17326
3.08216
2.99089
2.89735
2.80176
2.71195
2.6269
2.54406
2.4653
2.40337
2.36184
2.31749
2.26175
2.19661
2.12903
2.08287
2.0513
2.00662
1.95519
1.90032
1.85165
1.81381
1.78452
1.75218
1.70772
1.66569
1.63413
1.60316
1.57466
1.54917
1.51912
1.47932
1.44063
1.4101
1.38124
1.35256
1.32832
1.30779
1.28916
1.27356
1.25434
1.23454
1.2129
1.21712
1.26155
1.39594
1.61637
1.83656
1.98289
2.06987
2.06861
2.05866
2.0379
2.0166
1.99292
1.96865
1.94481
1.92038
1.90285
1.88925
1.87799
1.86499
1.83831
1.84369
1.40001
1.40001
1.40188
1.52564
2.64253
5.87956
6.96058
6.66183
6.42968
6.27125
6.10685
5.96602
5.86598
5.73573
5.55356
5.38081
5.23617
5.07293
4.89697
4.7228
4.5515
4.38966
4.24488
4.11417
3.99056
3.86998
3.75045
3.63165
3.51563
3.40592
3.30451
3.2098
3.11838
3.02777
2.93737
2.84701
2.75692
2.67022
2.59403
2.53161
2.47594
2.41461
2.34819
2.28086
2.22512
2.18927
2.15423
2.10724
2.04495
1.98284
1.94429
1.92139