/*--------------------------------*- C++ -*----------------------------------*\
  =========                 |
  \\      /  F ield         | OpenFOAM: The Open Source CFD Toolbox
   \\    /   O peration     | Website:  https://openfoam.org
    \\  /    A nd           | Version:  7
     \\/     M anipulation  |
\*---------------------------------------------------------------------------*/
FoamFile
{
    version     2.0;
    format      ascii;
    class       volScalarField;
    location    "3.4";
    object      rho;
}
// * * * * * * * * * * * * * * * * * * * * * * * * * * * * * * * * * * * * * //

dimensions      [1 -3 0 0 0 0 0];

internalField   nonuniform List<scalar> 
4032
(
1.40001
1.40001
1.40001
1.40001
1.40001
1.40001
1.40001
1.40001
1.40001
1.40001
1.40001
1.4971
4.22202
5.45956
5.51504
5.58999
5.65662
5.71885
5.7767
5.83053
5.879
5.91638
5.94319
5.96253
1.40001
1.40001
1.40001
1.40001
1.40001
1.40001
1.40001
1.40001
1.40001
1.40001
1.40001
1.47632
4.16189
5.45032
5.51059
5.58309
5.64849
5.70935
5.76596
5.81825
5.86472
5.89932
5.92234
5.93897
1.40001
1.40001
1.40001
1.40001
1.40001
1.40001
1.40001
1.40001
1.40001
1.40001
1.40001
1.40987
4.03627
5.43831
5.49377
5.56282
5.62684
5.68564
5.74019
5.79076
5.83676
5.87236
5.89627
5.91602
1.40001
1.40001
1.40001
1.40001
1.40001
1.40001
1.40001
1.40001
1.40001
1.40001
1.40001
1.4002
3.82665
5.40075
5.46274
5.5296
5.59345
5.65079
5.70396
5.7531
5.79719
5.82919
5.84722
5.86057
1.40001
1.40001
1.40001
1.40001
1.40001
1.40001
1.40001
1.40001
1.40001
1.40001
1.40001
1.4
3.53781
5.34042
5.42933
5.49202
5.55385
5.60689
5.65452
5.69633
5.73228
5.75931
5.77478
5.79542
1.40001
1.40001
1.40001
1.40001
1.40001
1.40001
1.40001
1.40001
1.40001
1.40001
1.40001
1.4
3.17951
5.2498
5.39387
5.45
5.50537
5.55045
5.5902
5.62562
5.65621
5.68105
5.68986
5.68012
1.40001
1.40001
1.40001
1.40001
1.40001
1.40001
1.40001
1.40001
1.40001
1.40001
1.40001
1.40001
2.76671
5.12234
5.37924
5.42296
5.46553
5.49617
5.51844
5.53671
5.5442
5.53326
5.51369
5.5038
1.40001
1.40001
1.40001
1.40001
1.40001
1.40001
1.40001
1.40001
1.40001
1.40001
1.40001
1.40001
2.29585
4.94211
5.40004
5.41016
5.43133
5.44393
5.44504
5.44116
5.42126
5.39064
5.33291
5.30208
1.40001
1.40001
1.40001
1.40001
1.40001
1.40001
1.40001
1.40001
1.40001
1.40001
1.40001
1.40001
1.80196
4.68193
5.43612
5.39926
5.40471
5.39519
5.3716
5.33968
5.27711
5.17351
4.8599
4.0079
1.40001
1.40001
1.40001
1.40001
1.40001
1.40001
1.40001
1.40001
1.40001
1.40001
1.40001
1.40001
1.44452
4.14259
5.38071
5.33
5.34046
5.32651
5.28784
5.22736
5.12186
4.93131
4.60304
3.70937
1.40001
1.40001
1.40001
1.40001
1.40001
1.40001
1.40001
1.40001
1.40001
1.40001
1.40001
1.40001
1.40016
3.37626
5.14615
5.26766
5.28573
5.25941
5.20626
5.11709
4.98029
4.74225
4.39518
3.56391
1.40001
1.40001
1.40001
1.40001
1.40001
1.40001
1.40001
1.40001
1.40001
1.40001
1.40001
1.40001
1.4
2.54809
4.90954
5.22267
5.21443
5.1939
5.13496
5.02413
4.85859
4.6091
4.22721
3.54268
1.40001
1.40001
1.40001
1.40001
1.40001
1.40001
1.40001
1.40001
1.40001
1.40001
1.40001
1.40001
1.4
1.76855
4.62969
5.27215
5.18151
5.11993
5.04609
4.92424
4.74651
4.5049
4.10697
3.56987
1.40001
1.40001
1.40001
1.40001
1.40001
1.40001
1.40001
1.40001
1.40001
1.40001
1.40001
1.40001
1.4
1.42668
3.84632
5.06255
5.05869
5.03118
4.95673
4.8339
4.66044
4.40997
4.0456
3.61792
1.40001
1.40001
1.40001
1.40001
1.40001
1.40001
1.40001
1.40001
1.40001
1.40001
1.40001
1.40001
1.40001
1.39988
2.73267
4.84617
5.04497
5.00165
4.9083
4.76706
4.59207
4.33892
4.02252
3.67082
1.40001
1.40001
1.40001
1.40001
1.40001
1.40001
1.40001
1.40001
1.40001
1.40001
1.40001
1.40001
1.40001
1.39997
1.70163
4.53083
5.11259
4.97693
4.85101
4.6921
4.51858
4.28431
4.01423
3.71764
1.40001
1.40001
1.40001
1.40001
1.40001
1.40001
1.40001
1.40001
1.40001
1.40001
1.40001
1.40001
1.40001
1.4
1.41322
3.57025
4.92301
4.87864
4.77303
4.62986
4.46222
4.2517
4.01518
3.75502
1.40001
1.40001
1.40001
1.40001
1.40001
1.40001
1.40001
1.40001
1.40001
1.40001
1.40001
1.40001
1.40001
1.4
1.39991
2.28221
4.73194
4.88484
4.76226
4.61612
4.44636
4.24469
4.02387
3.78829
1.40001
1.40001
1.40001
1.40001
1.40001
1.40001
1.40001
1.40001
1.40001
1.40001
1.40001
1.40001
1.40001
1.40001
1.39998
1.52276
3.90672
4.84988
4.72244
4.59677
4.43462
4.24442
4.03865
3.8217
1.40001
1.40001
1.40001
1.40001
1.40001
1.40001
1.40001
1.40001
1.40001
1.40001
1.40001
1.40001
1.40001
1.40001
1.4
1.40142
2.5292
4.61868
4.7185
4.59883
4.44194
4.2598
4.0684
3.86399
1.40001
1.40001
1.40001
1.40001
1.40001
1.40001
1.40001
1.40001
1.40001
1.40001
1.40001
1.40001
1.40001
1.40001
1.4
1.4
1.59085
3.86553
4.74333
4.61688
4.46813
4.28954
4.10261
3.90367
1.40001
1.40001
1.40001
1.40001
1.40001
1.40001
1.40001
1.40001
1.40001
1.40001
1.40001
1.40001
1.40001
1.40001
1.40001
1.4
1.40411
2.40492
4.50091
4.63515
4.48723
4.31499
4.13265
3.94274
1.40001
1.40001
1.40001
1.40001
1.40001
1.40001
1.40001
1.40001
1.40001
1.40001
1.40001
1.40001
1.40001
1.40001
1.40001
1.4
1.40002
1.54569
3.63936
4.66902
4.51817
4.34967
4.17066
3.98985
1.40001
1.40001
1.40001
1.40001
1.40001
1.40001
1.40001
1.40001
1.40001
1.40001
1.40001
1.40001
1.40001
1.40001
1.40001
1.40001
1.40001
1.40259
2.18102
4.27862
4.53639
4.37714
4.2117
4.03985
1.40001
1.40001
1.40001
1.40001
1.40001
1.40001
1.40001
1.40001
1.40001
1.40001
1.40001
1.40001
1.40001
1.40001
1.40001
1.40001
1.40001
1.40001
1.48091
3.13841
4.49821
4.43241
4.27493
4.1084
1.40001
1.40001
1.40001
1.40001
1.40001
1.40001
1.40001
1.40001
1.40001
1.40001
1.40001
1.40001
1.40001
1.40001
1.40001
1.40001
1.40001
1.40001
1.40116
1.8443
3.87792
4.48012
4.33389
4.16402
1.40001
1.40001
1.40001
1.40001
1.40001
1.40001
1.40001
1.40001
1.40001
1.40001
1.40001
1.40001
1.40001
1.40001
1.40001
1.40001
1.40001
1.40001
1.40001
1.42532
2.48467
4.21238
4.37116
4.22215
1.40001
1.40001
1.40001
1.40001
1.40001
1.40001
1.40001
1.40001
1.40001
1.40001
1.40001
1.40001
1.40001
1.40001
1.40001
1.40001
1.40001
1.40001
1.40001
1.40027
1.55829
3.19982
4.31814
4.28404
1.40001
1.40001
1.40001
1.40001
1.40001
1.40001
1.40001
1.40001
1.40001
1.40001
1.40001
1.40001
1.40001
1.40001
1.40001
1.40001
1.40001
1.40001
1.40001
1.40001
1.40407
1.88799
3.70424
4.29977
1.40001
1.40001
1.40001
1.40001
1.40001
1.40001
1.40001
1.40001
1.40001
1.40001
1.40001
1.40001
1.40001
1.40001
1.40001
1.40001
1.40001
1.40001
1.40001
1.40001
1.40003
1.43161
2.33569
3.98522
1.40001
1.40001
1.40001
1.40001
1.40001
1.40001
1.40001
1.40001
1.40001
1.40001
1.40001
1.40001
1.40001
1.40001
1.40001
1.40001
1.40001
1.40001
1.40001
1.40001
1.40001
1.40042
1.5168
2.81456
1.40001
1.40001
1.40001
1.40001
1.40001
1.40001
1.40001
1.40001
1.40001
1.40001
1.40001
1.40001
1.40001
1.40001
1.40001
1.40001
1.40001
1.40001
1.40001
1.40001
1.40001
1.40001
1.40281
1.68282
1.40001
1.40001
1.40001
1.40001
1.40001
1.40001
1.40001
1.40001
1.40001
1.40001
1.40001
1.40001
1.40001
1.40001
1.40001
1.40001
1.40001
1.40001
1.40001
1.40001
1.40001
1.40001
1.40002
1.41225
1.40001
1.40001
1.40001
1.40001
1.40001
1.40001
1.40001
1.40001
1.40001
1.40001
1.40001
1.40001
1.40001
1.40001
1.40001
1.40001
1.40001
1.40001
1.40001
1.40001
1.40001
1.40001
1.40001
1.40012
1.40001
1.40001
1.40001
1.40001
1.40001
1.40001
1.40001
1.40001
1.40001
1.40001
1.40001
1.40001
1.40001
1.40001
1.40001
1.40001
1.40001
1.40001
1.40001
1.40001
1.40001
1.40001
1.40001
1.40001
1.40001
1.40001
1.40001
1.40001
1.40001
1.40001
1.40001
1.40001
1.40001
1.40001
1.40001
1.40001
1.40001
1.40001
1.40001
1.40001
1.40001
1.40001
1.40001
1.40001
1.40001
1.40001
1.40001
1.40001
1.40001
1.40001
1.40001
1.40001
1.40001
1.40001
1.40001
1.40001
1.40001
1.40001
1.40001
1.40001
1.40001
1.40001
1.40001
1.40001
1.40001
1.40001
1.40001
1.40001
1.40001
1.40001
1.40001
1.40001
1.40001
1.40001
1.40001
1.40001
1.40001
1.40001
1.40001
1.40001
1.40001
1.40001
1.40001
1.40001
1.40001
1.40001
1.40001
1.40001
1.40001
1.40001
1.40001
1.40001
1.40001
1.40001
1.40001
1.40001
1.40001
1.40001
1.40001
1.40001
1.40001
1.40001
1.40001
1.40001
1.40001
1.40001
1.40001
1.40001
1.40001
1.40001
1.40001
1.40001
1.40001
1.40001
1.40001
1.40001
1.40001
1.40001
1.40001
1.40001
1.40001
1.40001
1.40001
1.40001
1.40001
1.40001
1.40001
1.40001
1.40001
1.40001
1.40001
1.40001
1.40001
1.40001
1.40001
1.40001
1.40001
1.40001
1.40001
1.40001
1.40001
1.40001
1.40001
1.40001
1.30949
0.480994
0.242481
0.224373
0.248988
0.277016
0.350152
0.46724
0.6026
0.70034
0.765391
0.827524
0.900015
0.959013
1.00528
1.03757
1.03449
1.01686
1.01653
1.02274
1.03464
1.0526
1.06948
1.07884
1.08065
1.08069
1.0782
1.07687
1.07838
1.08066
1.93632
2.82837
2.96843
2.99541
3.00886
3.01652
3.02118
3.02801
3.03433
3.03604
3.0289
3.00755
2.97262
2.93405
2.90404
2.88674
2.88042
2.87868
2.85948
2.81315
2.75996
2.71269
2.68019
2.66624
2.66627
2.65393
2.62223
2.58174
2.53699
2.49671
2.46605
2.44581
2.43669
2.42566
2.40189
2.372
2.33181
2.28584
2.24766
2.22097
2.20015
2.18796
2.1823
2.16719
2.14441
2.11097
2.06706
2.0315
2.00819
1.98997
1.97593
1.96421
1.94808
1.9274
1.89575
1.85407
1.82392
1.80774
1.79624
1.78971
1.78553
1.77312
1.75532
1.7246
1.68322
1.64357
2.01117
1.23101
0.843014
0.688444
0.615604
0.566771
0.552198
0.556213
0.575799
0.611212
0.648879
0.695427
0.770238
0.856825
0.92088
0.970232
0.998899
1.00585
1.0146
1.03755
1.06018
1.07948
1.08938
1.09423
1.09856
1.10058
1.10239
1.09921
1.09641
1.09835
1.8429
2.92621
3.08139
3.07419
3.06027
3.06174
3.06343
3.06011
3.04875
3.0388
3.03289
3.0276
3.01796
2.99294
2.95348
2.91367
2.87933
2.85796
2.84881
2.83488
2.80703
2.77013
2.7311
2.69791
2.66579
2.63591
2.61266
2.59163
2.56301
2.52878
2.49251
2.46103
2.43565
2.41353
2.39607
2.37471
2.3481
2.31881
2.28198
2.24184
2.21075
2.1904
2.17204
2.15739
2.14204
2.119
2.09237
2.05977
2.0259
1.9984
1.97727
1.95714
1.93849
1.92045
1.89858
1.87244
1.84537
1.82083
1.80368
1.79145
1.7789
1.7662
1.75004
1.72766
1.70079
1.66027
2.49444
1.85233
1.43322
1.115
0.938497
0.836073
0.767488
0.7102
0.66842
0.68179
0.7054
0.723099
0.760884
0.822182
0.877697
0.920004
0.968634
1.01908
1.05409
1.09539
1.13384
1.15192
1.15246
1.15245
1.15098
1.14732
1.14566
1.14174
1.14176
1.16063
1.75824
3.12816
3.35306
3.24103
3.17031
3.17669
3.19857
3.21614
3.20042
3.1619
3.12247
3.09709
3.09008
3.09572
3.08602
3.04968
2.99914
2.93735
2.89123
2.86389
2.85232
2.84554
2.82734
2.79219
2.74202
2.68278
2.6407
2.61415
2.59814
2.58425
2.56094
2.52814
2.48231
2.42875
2.39231
2.3703
2.36095
2.35286
2.33302
2.30618
2.26566
2.21343
2.17641
2.1538
2.1344
2.12404
2.11566
2.09813
2.0735
2.03611
1.99276
1.96095
1.93655
1.91362
1.89636
1.88572
1.87293
1.85519
1.82892
1.80008
1.77881
1.76067
1.74206
1.72495
1.71336
1.68614
2.82423
2.26711
1.86401
1.57273
1.31248
1.12465
1.04798
0.972913
0.876212
0.848515
0.825856
0.777077
0.765239
0.778164
0.79754
0.819401
0.867224
0.939725
1.00492
1.05771
1.10769
1.13956
1.14832
1.16752
1.18199
1.18837
1.19208
1.1911
1.21082
1.33796
1.79382
3.01875
3.6226
3.52725
3.3861
3.32231
3.32244
3.34197
3.34162
3.31515
3.25448
3.20626
3.18008
3.17289
3.17197
3.14942
3.11694
3.06819
3.00303
2.9564
2.92982
2.91369
2.89645
2.86674
2.83064
2.78193
2.72123
2.67676
2.65101
2.63359
2.61527
2.58868
2.55608
2.50932
2.45307
2.41671
2.39777
2.38484
2.37189
2.35226
2.323
2.27575
2.22054
2.18176
2.16096
2.14868
2.14188
2.13099
2.11371
2.08628
2.0384
1.98348
1.94639
1.92626
1.91297
1.90453
1.89806
1.88571
1.86689
1.83176
1.78847
1.76149
1.74631
1.73559
1.73004
1.70735
3.05388
2.59331
2.1886
1.90654
1.66431
1.42266
1.30033
1.21492
1.10696
1.00721
0.958543
0.898457
0.823739
0.813516
0.817788
0.821984
0.829219
0.848117
0.885108
0.937028
1.00296
1.06464
1.10457
1.14112
1.16398
1.17872
1.18392
1.21516
1.36852
1.79554
2.0738
2.50162
3.24278
3.55588
3.55415
3.48922
3.4454
3.42419
3.4242
3.41271
3.3741
3.31413
3.27007
3.24164
3.2255
3.2134
3.1911
3.16147
3.11472
3.05379
3.00662
2.97343
2.94476
2.91852
2.8904
2.85781
2.81157
2.75583
2.71419
2.68669
2.66099
2.6348
2.60843
2.57864
2.53864
2.48853
2.45035
2.42826
2.4069
2.38253
2.3538
2.31992
2.28125
2.24225
2.21314
2.19477
2.17965
2.1638
2.14376
2.1149
2.07358
2.02627
1.98679
1.96217
1.94668
1.93456
1.92256
1.90856
1.89094
1.86124
1.81807
1.78473
1.76931
1.7581
1.75071
1.7278
3.20319
2.81479
2.46094
2.16205
1.92738
1.70944
1.53479
1.41541
1.31203
1.20081
1.1239
1.07429
0.996486
0.937302
0.918702
0.901917
0.879099
0.865974
0.859727
0.864369
0.880494
0.910691
0.96174
1.02079
1.07695
1.12234
1.16244
1.31882
1.71654
2.14202
2.26439
2.31705
2.56819
3.09247
3.46414
3.52569
3.51746
3.47237
3.46377
3.44433
3.4212
3.37614
3.31394
3.27632
3.25242
3.24022
3.22736
3.20359
3.17141
3.12036
3.05555
3.00373
2.97077
2.94507
2.92411
2.8992
2.86644
2.81951
2.76221
2.71861
2.69147
2.66875
2.64948
2.62746
2.59891
2.55325
2.49616
2.45552
2.42826
2.40277
2.37782
2.35589
2.3355
2.31093
2.27774
2.24026
2.21105
2.1864
2.15932
2.12899
2.09943
2.07352
2.04674
2.01503
1.98564
1.96465
1.94629
1.92644
1.9033
1.87666
1.85011
1.82586
1.80295
1.78287
1.7708
1.74578
3.31496
2.96948
2.66576
2.38824
2.13783
1.93824
1.75747
1.60351
1.49108
1.39128
1.28215
1.20911
1.15089
1.07693
1.01169
0.987587
0.966777
0.935653
0.890647
0.874249
0.876685
0.877172
0.884218
0.905989
0.950357
1.01489
1.17339
1.59443
2.00997
2.16725
2.24357
2.26573
2.30426
2.49887
2.96315
3.38767
3.47119
3.47553
3.47444
3.44918
3.42694
3.40221
3.35733
3.30744
3.2719
3.24677
3.23229
3.20952
3.17942
3.14619
3.09849
3.03848
2.99015
2.96178
2.93808
2.91204
2.88448
2.85296
2.80821
2.75446
2.71745
2.69605
2.67555
2.65115
2.62145
2.58373
2.53194
2.47511
2.43833
2.41609
2.39827
2.38449
2.37193
2.3535
2.32497
2.27589
2.22317
2.18699
2.16026
2.13971
2.12452
2.11019
2.09251
2.06588
2.02671
1.98847
1.95976
1.93368
1.90994
1.89117
1.87622
1.86078
1.84067
1.81353
1.79105
1.75849
3.40152
3.0983
2.82713
2.56281
2.31801
2.13064
1.95454
1.78829
1.65233
1.55493
1.44698
1.34516
1.2855
1.22719
1.1396
1.08143
1.07068
1.05097
0.997758
0.946151
0.925526
0.91085
0.897461
0.898861
0.911303
1.0093
1.38776
1.78959
1.96287
2.01029
2.05149
2.10957
2.17158
2.25621
2.42917
2.84953
3.27888
3.41174
3.44214
3.42729
3.41712
3.39489
3.37752
3.34853
3.29772
3.24405
3.20708
3.17867
3.16399
3.14859
3.12053
3.07987
3.0164
2.95405
2.918
2.89629
2.88431
2.86369
2.83843
2.80183
2.74772
2.69315
2.65624
2.63195
2.61104
2.58753
2.55493
2.50923
2.46257
2.43559
2.4192
2.40953
2.39364
2.37124
2.33965
2.29026
2.23019
2.18667
2.16488
2.15103
2.14275
2.13307
2.11828
2.0981
2.05938
2.00291
1.96037
1.93522
1.91803
1.90498
1.89353
1.88105
1.86706
1.84293
1.8065
1.75861
3.47341
3.20706
2.95839
2.70328
2.48466
2.296
2.11636
1.94408
1.82075
1.70319
1.58941
1.47464
1.40667
1.35248
1.29088
1.21546
1.14813
1.12302
1.09102
1.0373
0.994159
0.961693
0.933289
0.93097
1.00767
1.30386
1.72067
1.82263
1.83081
1.82911
1.84147
1.90631
1.98566
2.04832
2.11324
2.25868
2.61985
3.10339
3.3228
3.39239
3.39407
3.37878
3.37348
3.35731
3.32275
3.25372
3.18607
3.15279
3.13293
3.13393
3.12428
3.09557
3.04659
2.96505
2.90819
2.88224
2.86402
2.85926
2.8446
2.81863
2.77536
2.70571
2.65036
2.62014
2.59747
2.57732
2.5576
2.53475
2.50447
2.46624
2.43054
2.4015
2.37558
2.35017
2.32239
2.28989
2.24914
2.2113
2.18653
2.17072
2.15756
2.14574
2.13025
2.10492
2.06405
2.0098
1.96773
1.94632
1.93216
1.92081
1.9129
1.90381
1.89017
1.86151
1.81195
1.75848
3.53652
3.29802
3.06548
2.82608
2.62503
2.44281
2.25921
2.09002
1.96197
1.83999
1.7239
1.61922
1.53387
1.44815
1.39421
1.34666
1.27429
1.2039
1.17336
1.14204
1.09037
1.04262
1.03014
1.09048
1.35965
1.74023
1.88621
1.86908
1.84528
1.8352
1.83085
1.82031
1.82566
1.83805
1.86561
1.9028
2.0042
2.31317
2.80767
3.21732
3.30549
3.33125
3.36321
3.35121
3.32348
3.27484
3.19169
3.136
3.10951
3.10082
3.11068
3.08978
3.05545
2.99854
2.91864
2.87328
2.85021
2.83731
2.83205
2.81173
2.7828
2.73561
2.66639
2.61609
2.5895
2.56888
2.55417
2.54079
2.52042
2.49173
2.44745
2.40094
2.36554
2.33563
2.30641
2.28112
2.26201
2.24246
2.21759
2.18924
2.16456
2.14041
2.11352
2.08404
2.0494
2.01413
1.98744
1.96794
1.95224
1.93693
1.92118
1.90226
1.87869
1.84913
1.81272
1.77218
3.59285
3.37427
3.15515
2.93734
2.743
2.56325
2.38038
2.22803
2.0956
1.96792
1.83593
1.74217
1.663
1.57287
1.48171
1.43854
1.39173
1.31323
1.24919
1.21494
1.17965
1.14832
1.2065
1.47185
1.85359
1.99736
1.96945
1.93341
1.91614
1.90367
1.88807
1.8593
1.82482
1.81966
1.82046
1.83172
1.83746
1.86111
2.02382
2.4447
2.92921
3.17207
3.27824
3.32764
3.31851
3.2807
3.22537
3.14963
3.10377
3.07999
3.06875
3.06778
3.04978
3.01418
2.95704
2.88831
2.84808
2.82434
2.80517
2.79471
2.77693
2.74741
2.70006
2.63774
2.59093
2.56536
2.54633
2.53294
2.51847
2.49633
2.46075
2.41092
2.36175
2.32681
2.3041
2.28885
2.27677
2.26065
2.23482
2.19764
2.16176
2.13107
2.10328
2.07304
2.04455
2.02527
2.00698
1.98633
1.96702
1.94988
1.92808
1.90054
1.8708
1.83755
1.81498
1.78993
3.64948
3.44408
3.23586
3.03121
2.84909
2.67289
2.4938
2.34683
2.2139
2.08683
1.9568
1.85914
1.7722
1.68807
1.58955
1.52742
1.48166
1.42292
1.34496
1.28286
1.26817
1.34534
1.66021
2.04667
2.16306
2.1252
2.06924
2.03531
2.02519
2.00905
1.98208
1.94817
1.89483
1.84864
1.83279
1.8253
1.82089
1.83028
1.82144
1.86032
2.08833
2.54573
2.96074
3.17087
3.26082
3.27641
3.24223
3.20069
3.13498
3.08027
3.05301
3.03123
3.0179
3.00362
2.9757
2.93219
2.8719
2.82326
2.79593
2.77299
2.75282
2.73469
2.7102
2.67216
2.62113
2.57401
2.54126
2.51704
2.49755
2.4793
2.45754
2.42401
2.38236
2.34689
2.32118
2.29916
2.27623
2.25009
2.22271
2.19167
2.15465
2.12273
2.09687
2.07684
2.06189
2.04527
2.02456
2.00184
1.97536
1.94609
1.92018
1.89477
1.86685
1.83949
1.82512
1.80195
3.70202
3.50294
3.30235
3.11626
2.94391
2.76559
2.59662
2.45996
2.32682
2.18854
2.06891
1.9727
1.87539
1.78479
1.70138
1.62995
1.55891
1.49297
1.43424
1.40223
1.48753
1.81983
2.245
2.35878
2.31668
2.24642
2.1738
2.14037
2.12718
2.10644
2.07836
2.04852
2.00289
1.93898
1.89673
1.87176
1.85227
1.8364
1.82463
1.81963
1.80799
1.87597
2.15456
2.61973
2.98264
3.16898
3.22036
3.23296
3.19126
3.13315
3.0548
3.01524
2.99354
2.98161
2.97392
2.95199
2.91461
2.8564
2.79792
2.76202
2.73784
2.71675
2.69892
2.67965
2.65019
2.60495
2.55252
2.51328
2.48728
2.46487
2.44246
2.42212
2.40141
2.37609
2.34396
2.30957
2.27828
2.24944
2.21751
2.17776
2.13996
2.11582
2.10156
2.09277
2.08267
2.06637
2.04109
2.00306
1.9606
1.92967
1.90744
1.88813
1.87116
1.85927
1.84719
1.81535
3.7533
3.56287
3.37161
3.19747
3.03092
2.85658
2.70023
2.56192
2.42696
2.28602
2.17822
2.07809
1.97818
1.87283
1.79747
1.72874
1.64538
1.57371
1.54932
1.66452
1.99897
2.41755
2.5355
2.48875
2.4317
2.36575
2.28829
2.24662
2.22683
2.21001
2.18268
2.15168
2.11121
2.04993
1.98816
1.95125
1.92427
1.89669
1.87084
1.84688
1.8257
1.79823
1.79329
1.89412
2.23573
2.68976
3.00631
3.15443
3.19917
3.18517
3.108
3.02306
2.98644
2.9705
2.9664
2.95737
2.93439
2.89739
2.83331
2.76764
2.73128
2.7091
2.68923
2.67086
2.65274
2.62682
2.58464
2.53115
2.48711
2.45972
2.44091
2.42545
2.41028
2.38973
2.35524
2.31573
2.28194
2.25097
2.21542
2.1717
2.13903
2.12602
2.12056
2.11282
2.09957
2.08155
2.05195
2.00713
1.95662
1.92157
1.90076
1.88733
1.87798
1.8714
1.86132
1.8271
3.80994
3.62695
3.44542
3.27724
3.11214
2.94335
2.79551
2.65841
2.52001
2.38376
2.27624
2.17252
2.07158
1.969
1.8882
1.8032
1.72579
1.72994
1.88273
2.25773
2.54624
2.6837
2.65196
2.60864
2.56458
2.50557
2.4184
2.35399
2.32415
2.29898
2.26855
2.23462
2.19826
2.15126
2.08375
2.02573
1.99527
1.96917
1.9427
1.91495
1.88448
1.85118
1.8029
1.77089
1.78444
1.94292
2.32495
2.74114
3.04722
3.1252
3.138
3.07317
3.00921
2.98427
2.96735
2.9569
2.9372
2.91152
2.86945
2.80441
2.74441
2.71158
2.68976
2.66946
2.64914
2.62833
2.60097
2.55613
2.50396
2.46986
2.44799
2.42766
2.40407
2.37418
2.34176
2.3112
2.2828
2.25338
2.22273
2.1928
2.16427
2.13188
2.10455
2.08925
2.07764
2.06567
2.04798
2.01258
1.95832
1.92095
1.90813
1.90243
1.8993
1.88961
1.87744
1.83684
3.86442
3.68923
3.51965
3.35336
3.18571
3.0277
2.8879
2.74959
2.60476
2.48108
2.37231
2.26798
2.15445
2.0551
1.97329
1.88463
1.91316
2.15416
2.60238
2.8226
2.86751
2.80635
2.75659
2.72733
2.68846
2.63351
2.55461
2.46855
2.42106
2.38784
2.35452
2.31889
2.28301
2.24318
2.18925
2.1245
2.07362
2.03649
2.00539
1.97648
1.94689
1.91265
1.87031
1.82193
1.76621
1.76009
1.79166
1.98813
2.39339
2.76713
3.01505
3.04459
3.05911
3.03308
2.99392
2.96409
2.93402
2.90502
2.87725
2.83723
2.7807
2.73231
2.70496
2.68206
2.65845
2.63368
2.60495
2.56714
2.52046
2.48178
2.45495
2.4306
2.40468
2.37606
2.34396
2.30573
2.27057
2.24699
2.22869
2.21236
2.18842
2.14552
2.10435
2.08056
2.06148
2.04311
2.02355
2.00115
1.97405
1.94677
1.91943
1.89896
1.88436
1.87288
1.86204
1.82695
3.93466
3.76276
3.59674
3.43137
3.26504
3.11497
2.97453
2.83651
2.69313
2.57774
2.46575
2.3533
2.23486
2.14375
2.05812
2.1152
2.4112
2.91077
3.13978
3.08102
3.0014
2.90737
2.85428
2.83125
2.79731
2.74518
2.67947
2.59359
2.52534
2.48326
2.4452
2.40628
2.36584
2.32192
2.26997
2.20799
2.1511
2.11052
2.07649
2.0426
2.01069
1.97834
1.94256
1.8962
1.84049
1.78505
1.75813
1.76096
1.8145
2.03628
2.43506
2.77262
2.95697
3.01088
3.01229
2.99036
2.94406
2.91203
2.87967
2.84585
2.80256
2.75301
2.72335
2.70121
2.67703
2.64982
2.61766
2.57556
2.52458
2.48167
2.45309
2.43054
2.40991
2.38861
2.35999
2.31749
2.27458
2.25164
2.23859
2.22435
2.20074
2.16048
2.11675
2.08104
2.05471
2.03179
2.01086
1.9949
1.98327
1.96853
1.93958
1.90407
1.88104
1.86337
1.84885
1.8178
3.99325
3.82779
3.66403
3.49757
3.3414
3.19996
3.058
2.91376
2.78387
2.66885
2.55516
2.4274
2.32427
2.25149
2.35423
2.73718
3.12208
3.37149
3.35502
3.25405
3.13095
3.0239
2.97587
2.94931
2.91269
2.86008
2.79684
2.71817
2.63961
2.58268
2.53725
2.49341
2.44876
2.40219
2.35096
2.29065
2.2264
2.17615
2.13889
2.10523
2.07304
2.04071
2.00684
1.96656
1.91558
1.85532
1.80606
1.76722
1.76061
1.76825
1.83451
2.08346
2.44087
2.74838
2.92001
2.9562
2.95637
2.93726
2.90673
2.86718
2.81186
2.75737
2.72692
2.70956
2.692
2.67188
2.64604
2.6047
2.53839
2.47115
2.43745
2.41967
2.40478
2.39043
2.37313
2.34664
2.3107
2.27204
2.23295
2.1953
2.16844
2.15118
2.12796
2.09921
2.0669
2.0329
2.01172
2.00258
1.99677
1.98277
1.95449
1.91788
1.88671
1.85956
1.83704
1.80796
4.05497
3.89583
3.73663
3.57426
3.42729
3.28502
3.14196
2.99853
2.87411
2.75871
2.63124
2.51332
2.48115
2.66067
3.16832
3.46795
3.53539
3.53173
3.46264
3.38808
3.29757
3.19145
3.11524
3.06623
3.02026
2.96507
2.90238
2.83092
2.7534
2.68442
2.63082
2.58307
2.5358
2.48741
2.43561
2.37625
2.30746
2.24342
2.19666
2.15908
2.12577
2.09433
2.06159
2.02527
1.9805
1.9274
1.8767
1.8343
1.80072
1.77082
1.75492
1.76265
1.83187
2.06793
2.40422
2.714
2.86935
2.92197
2.9288
2.89697
2.83725
2.77388
2.72386
2.70587
2.69756
2.68428
2.66238
2.62555
2.56176
2.48456
2.44419
2.42434
2.40735
2.39159
2.37736
2.363
2.34061
2.29933
2.2413
2.1918
2.15834
2.13349
2.11828
2.10485
2.08634
2.0633
2.03825
2.00924
1.97785
1.9571
1.94413
1.92511
1.89633
1.8661
1.84166
1.80934
4.132
3.97357
3.81504
3.65802
3.51382
3.37092
3.22459
3.08553
2.95563
2.8395
2.71308
2.74546
3.02554
3.53736
3.91995
3.89769
3.76268
3.61999
3.55432
3.51821
3.45306
3.35861
3.25784
3.18166
3.12326
3.06673
3.0051
2.93622
2.8601
2.78197
2.71654
2.66463
2.61733
2.57049
2.5213
2.46542
2.39669
2.32182
2.26248
2.21895
2.18219
2.14847
2.11394
2.07626
2.03066
1.97928
1.92719
1.88539
1.85276
1.8206
1.78986
1.76217
1.72963
1.73057
1.80521
2.04643
2.39766
2.67785
2.84596
2.87139
2.86756
2.81987
2.75215
2.70455
2.68556
2.66518
2.64401
2.61925
2.57924
2.521
2.46888
2.43678
2.41605
2.39936
2.3823
2.3638
2.34357
2.31293
2.26074
2.19827
2.15284
2.13169
2.11962
2.10842
2.09808
2.08629
2.06527
2.02575
1.97969
1.94545
1.92266
1.90409
1.88918
1.87442
1.85685
1.82101
4.20797
4.04671
3.885
3.73734
3.59339
3.44415
3.30535
3.1614
3.04923
2.95095
3.05604
3.48281
3.9116
4.16035
4.17755
4.06906
3.91383
3.76026
3.68465
3.64599
3.58767
3.50276
3.40124
3.30336
3.23198
3.16934
3.10549
3.03751
2.96396
2.88418
2.8077
2.74524
2.69309
2.64527
2.59722
2.54468
2.4825
2.41049
2.34099
2.28511
2.24085
2.20248
2.16447
2.12475
2.07967
2.02933
1.97408
1.9246
1.88664
1.85499
1.82933
1.79805
1.76481
1.72824
1.68861
1.69358
1.80029
2.05509
2.4
2.65097
2.7975
2.79814
2.78245
2.73577
2.68149
2.65021
2.62935
2.60777
2.58009
2.54865
2.51054
2.46682
2.43205
2.41032
2.39087
2.37215
2.35067
2.31809
2.27223
2.22225
2.18336
2.15268
2.12726
2.11227
2.10189
2.09207
2.07577
2.04322
1.99254
1.94144
1.91259
1.89822
1.88581
1.87405
1.86184
1.83492
4.24581
4.12981
3.96084
3.82172
3.67095
3.5189
3.38164
3.25776
3.24512
3.48014
4.03963
4.41751
4.44589
4.41269
4.30595
4.19861
4.08904
3.95516
3.8488
3.7763
3.71016
3.63178
3.54085
3.44509
3.35649
3.27859
3.20678
3.13514
3.0617
2.98493
2.90645
2.83408
2.77085
2.71475
2.66156
2.60674
2.54768
2.4848
2.42104
2.36033
2.30602
2.25778
2.21217
2.16803
2.12274
2.07574
2.02473
1.97334
1.92724
1.88806
1.85508
1.82478
1.79625
1.75514
1.70996
1.67159
1.65175
1.67155
1.79962
2.07177
2.40228
2.61209
2.69712
2.69654
2.67047
2.63824
2.61468
2.5998
2.58608
2.56871
2.53574
2.48491
2.45037
2.42867
2.40411
2.37114
2.33027
2.29841
2.27553
2.2471
2.21754
2.18147
2.14745
2.12565
2.10786
2.08883
2.07036
2.04757
2.00422
1.94953
1.91845
1.90358
1.89136
1.87801
1.87404
1.86229
4.09225
4.19185
4.05342
3.906
3.7401
3.61331
3.48387
3.60274
4.02479
4.56717
4.88889
4.81333
4.64604
4.53686
4.44652
4.3711
4.2787
4.15823
4.03311
3.93811
3.85482
3.76923
3.67903
3.583
3.48667
3.3982
3.31753
3.24029
3.16313
3.08529
3.00672
2.92968
2.85562
2.78659
2.72427
2.66605
2.60813
2.54891
2.48859
2.42605
2.36383
2.30586
2.25229
2.20296
2.15586
2.10977
2.06246
2.01462
1.96868
1.92698
1.88785
1.85048
1.81153
1.76946
1.72451
1.68248
1.65117
1.6386
1.62555
1.66037
1.79748
2.07114
2.3465
2.5651
2.59523
2.60576
2.60877
2.58594
2.554
2.51995
2.48126
2.4696
2.46011
2.43977
2.40849
2.3651
2.32415
2.28804
2.26013
2.24956
2.23399
2.20735
2.17562
2.14638
2.12094
2.09628
2.06735
2.02905
1.98881
1.95457
1.93273
1.91457
1.90697
1.89949
1.90372
1.98366
3.22386
4.13096
4.12614
3.99372
3.82982
3.78553
4.08014
4.70965
5.10644
5.27855
5.22297
5.02779
4.81423
4.68684
4.61359
4.54595
4.45235
4.33226
4.20517
4.09782
4.00566
3.91407
3.8181
3.71689
3.61194
3.51235
3.42322
3.34082
3.25974
3.1787
3.09773
3.01708
2.93527
2.85424
2.7817
2.72048
2.66538
2.60981
2.54774
2.48129
2.41339
2.34752
2.28792
2.2351
2.18618
2.13904
2.0913
2.04351
1.99743
1.95478
1.91287
1.87128
1.83161
1.7975
1.76244
1.73046
1.69434
1.65233
1.61008
1.59012
1.57909
1.63114
1.76657
2.03378
2.2703
2.45871
2.54977
2.5623
2.55274
2.51679
2.47178
2.44242
2.4124
2.37938
2.35338
2.3346
2.31195
2.28037
2.25231
2.22673
2.20202
2.17954
2.15458
2.1253
2.09559
2.06884
2.04323
2.01567
1.99046
1.96982
1.95514
1.94354
1.94449
1.98169
2.08595
2.35108
1.92133
3.54051
4.08252
4.02979
4.16802
4.73222
5.47118
5.69035
5.57486
5.49074
5.37061
5.21348
5.02739
4.88769
4.81786
4.73957
4.63182
4.50278
4.37099
4.25607
4.15494
4.05507
3.95056
3.84027
3.7253
3.61539
3.5173
3.42871
3.3448
3.2619
3.1778
3.092
3.00489
2.91556
2.8265
2.74961
2.69366
2.65222
2.6026
2.53052
2.45699
2.38838
2.32651
2.2703
2.21617
2.16203
2.10781
2.05607
2.00729
1.96217
1.91928
1.87928
1.84047
1.80223
1.76237
1.72294
1.68396
1.64521
1.61171
1.57996
1.55512
1.54169
1.53018
1.5737
1.73189
2.00445
2.23933
2.42241
2.48597
2.48008
2.46721
2.43839
2.39281
2.34857
2.32171
2.299
2.27334
2.24647
2.21908
2.19377
2.17581
2.1606
2.14362
2.11911
2.08285
2.04246
2.01244
1.99446
1.98841
1.98672
1.9883
2.02431
2.12149
2.32493
2.54656
2.721
1.43854
2.2296
3.50015
4.33398
5.58662
6.10705
6.20734
6.02524
5.79373
5.59359
5.47909
5.36666
5.21418
5.0714
4.98979
4.89791
4.77977
4.64635
4.51178
4.38565
4.27233
4.16585
4.05674
3.94258
3.82302
3.70294
3.59199
3.49421
3.40711
3.32455
3.24206
3.15362
3.05903
2.97026
2.88832
2.80808
2.73204
2.65898
2.61485
2.57937
2.52358
2.45261
2.38176
2.31697
2.25599
2.19649
2.13901
2.08611
2.03712
1.99145
1.94825
1.90704
1.86409
1.81885
1.77007
1.725
1.68638
1.65472
1.62827
1.59858
1.56546
1.52257
1.49274
1.46501
1.47118
1.5433
1.75133
2.02586
2.21208
2.30987
2.37973
2.37151
2.34849
2.32382
2.29931
2.27252
2.24499
2.21693
2.1877
2.16754
2.15464
2.1416
2.12235
2.09333
2.05467
2.01915
2.00131
1.99862
2.00795
2.07104
2.20918
2.40874
2.61316
2.80188
2.88209
2.88987
1.4007
1.48668
2.4674
5.4737
6.76831
6.48721
6.2697
6.02668
5.80534
5.647
5.56219
5.48966
5.37506
5.23448
5.13668
5.03344
4.9068
4.77127
4.63448
4.50205
4.37963
4.26543
4.15152
4.0345
3.91316
3.79001
3.67409
3.57091
3.47666
3.38959
3.30542
3.21675
3.10919
2.98029
2.89595
2.84399
2.77688
2.69869
2.61978
2.54545
2.47716
2.40859
2.34073
2.27583
2.21506
2.15749
2.10217
2.05048
2.00214
1.95713
1.91405
1.87186
1.82965
1.78996
1.7524
1.71461
1.67871
1.64702
1.61794
1.58189
1.54055
1.50119
1.47471
1.45048
1.43759
1.42396
1.44748
1.54059
1.75061
1.98054
2.18739
2.22425
2.25018
2.25811
2.24619
2.22302
2.19525
2.16465
2.14241
2.13008
2.11944
2.10499
2.08434
2.06421
2.04167
2.01859
2.02428
2.08126
2.22645
2.48533
2.72642
2.89234
2.96703
2.94533
2.91671
2.89412
1.40001
1.40179
2.25262
5.67681
6.47381
6.12891
5.93217
5.79247
5.67891
5.58872
5.52562
5.4892
5.38652
5.24847
5.14647
5.04059
4.90812
4.75957
4.60895
4.46774
4.3381
4.21975
4.10426
3.98456
3.86091
3.73746
3.62058
3.51488
3.41845
3.32557
3.23317
3.14246
3.06382
2.99636
2.91375
2.81907
2.72914
2.65114
2.57777
2.50765
2.44486
2.38417
2.32207
2.2589
2.19984
2.14689
2.09719
2.04732
1.99645
1.9481
1.90256
1.85905
1.8176
1.78175
1.75126
1.72164
1.68749
1.65117
1.61846
1.58183
1.54018
1.49805
1.47312
1.45732
1.43596
1.40762
1.39009
1.37665
1.41099
1.514
1.71635
1.92644
2.10234
2.18448
2.19819
2.18975
2.16591
2.13119
2.10027
2.07149
2.05687
2.04585
2.04952
2.05545
2.07083
2.13128
2.26989
2.50736
2.75253
2.96043
3.02454
3.053
3.04642
2.99709
2.92851
2.87637
1.40001
1.40003
2.5866
5.25815
5.77519
5.6736
5.63873
5.59193
5.53848
5.48512
5.43344
5.38595
5.28281
5.16362
5.06865
4.96673
4.8284
4.66433
4.51154
4.38298
4.26102
4.14502
4.03193
3.91617
3.79665
3.67713
3.56377
3.4605
3.36489
3.27199
3.17843
3.08542
3.00136
2.92774
2.85876
2.78014
2.69646
2.61524
2.5393
2.46954
2.40365
2.33925
2.2765
2.21469
2.15516
2.09862
2.0459
1.99828
1.95504
1.91641
1.87998
1.84385
1.80434
1.76083