/*--------------------------------*- C++ -*----------------------------------*\
  =========                 |
  \\      /  F ield         | OpenFOAM: The Open Source CFD Toolbox
   \\    /   O peration     | Website:  https://openfoam.org
    \\  /    A nd           | Version:  7
     \\/     M anipulation  |
\*---------------------------------------------------------------------------*/
FoamFile
{
    version     2.0;
    format      ascii;
    class       volScalarField;
    location    "1.4";
    object      rho;
}
// * * * * * * * * * * * * * * * * * * * * * * * * * * * * * * * * * * * * * //

dimensions      [1 -3 0 0 0 0 0];

internalField   nonuniform List<scalar> 
64512
(
1.40001
1.40001
1.40001
1.40001
1.40001
1.40001
1.40001
1.40001
1.40001
1.40001
1.40001
1.40001
1.40001
1.40001
1.40001
1.40001
1.40001
1.40001
1.40001
1.40001
1.40001
1.40001
1.40001
1.40001
1.40001
1.40001
1.40001
1.40001
1.40001
1.40001
1.40001
1.40001
1.40001
1.40001
1.40001
1.40001
1.40001
1.40001
1.40001
1.40001
1.40001
1.40001
1.40001
1.40001
1.40001
1.40001
1.40001
1.40001
1.40001
1.40001
1.40001
1.73935
4.64016
5.4862
5.4828
5.50176
5.51981
5.53622
5.55393
5.57649
5.60315
5.63005
5.6526
5.6674
5.67309
5.67282
5.67428
5.68598
5.71159
5.74498
5.77653
5.80462
5.82439
5.83596
5.83935
5.83287
5.82384
5.82077
5.83067
5.85118
5.87567
5.89637
5.90791
5.9105
5.90752
5.90406
5.90427
5.9096
5.91703
5.92011
5.91107
5.88287
5.83345
5.77441
5.73079
5.71538
1.40001
1.40001
1.40001
1.40001
1.40001
1.40001
1.40001
1.40001
1.40001
1.40001
1.40001
1.40001
1.40001
1.40001
1.40001
1.40001
1.40001
1.40001
1.40001
1.40001
1.40001
1.40001
1.40001
1.40001
1.40001
1.40001
1.40001
1.40001
1.40001
1.40001
1.40001
1.40001
1.40001
1.40001
1.40001
1.40001
1.40001
1.40001
1.40001
1.40001
1.40001
1.40001
1.40001
1.40001
1.40001
1.40001
1.40001
1.40001
1.40001
1.40001
1.40001
1.72811
4.62326
5.48201
5.48378
5.50188
5.51889
5.5346
5.55211
5.57473
5.60177
5.62903
5.65176
5.66677
5.67286
5.673
5.67471
5.68651
5.71204
5.74516
5.7766
5.8047
5.82448
5.83587
5.83885
5.83168
5.82239
5.8195
5.82992
5.85061
5.87494
5.89522
5.90658
5.90934
5.90684
5.90389
5.90443
5.9095
5.9161
5.91849
5.9092
5.88119
5.83192
5.77299
5.72928
5.71379
1.40001
1.40001
1.40001
1.40001
1.40001
1.40001
1.40001
1.40001
1.40001
1.40001
1.40001
1.40001
1.40001
1.40001
1.40001
1.40001
1.40001
1.40001
1.40001
1.40001
1.40001
1.40001
1.40001
1.40001
1.40001
1.40001
1.40001
1.40001
1.40001
1.40001
1.40001
1.40001
1.40001
1.40001
1.40001
1.40001
1.40001
1.40001
1.40001
1.40001
1.40001
1.40001
1.40001
1.40001
1.40001
1.40001
1.40001
1.40001
1.40001
1.40001
1.40001
1.70696
4.59603
5.47905
5.48347
5.50025
5.51598
5.53122
5.54893
5.57213
5.59992
5.62764
5.65045
5.66564
5.67239
5.67325
5.67538
5.68754
5.71309
5.74562
5.77648
5.80426
5.82381
5.83513
5.83787
5.83023
5.82088
5.81818
5.8288
5.8492
5.87292
5.89264
5.90413
5.9075
5.90595
5.9039
5.90478
5.90916
5.91445
5.91584
5.90624
5.87843
5.82914
5.77023
5.72644
5.71083
1.40001
1.40001
1.40001
1.40001
1.40001
1.40001
1.40001
1.40001
1.40001
1.40001
1.40001
1.40001
1.40001
1.40001
1.40001
1.40001
1.40001
1.40001
1.40001
1.40001
1.40001
1.40001
1.40001
1.40001
1.40001
1.40001
1.40001
1.40001
1.40001
1.40001
1.40001
1.40001
1.40001
1.40001
1.40001
1.40001
1.40001
1.40001
1.40001
1.40001
1.40001
1.40001
1.40001
1.40001
1.40001
1.40001
1.40001
1.40001
1.40001
1.40001
1.40001
1.67984
4.55571
5.47388
5.48252
5.49791
5.5121
5.52676
5.54494
5.56918
5.59784
5.62566
5.64808
5.66333
5.67096
5.67293
5.67597
5.68887
5.71451
5.74613
5.77598
5.80314
5.82227
5.83342
5.83594
5.82808
5.81919
5.81702
5.82788
5.84744
5.86983
5.88862
5.90019
5.90438
5.90415
5.90348
5.905
5.9086
5.91227
5.91214
5.90183
5.874
5.82468
5.76593
5.72235
5.70683
1.40001
1.40001
1.40001
1.40001
1.40001
1.40001
1.40001
1.40001
1.40001
1.40001
1.40001
1.40001
1.40001
1.40001
1.40001
1.40001
1.40001
1.40001
1.40001
1.40001
1.40001
1.40001
1.40001
1.40001
1.40001
1.40001
1.40001
1.40001
1.40001
1.40001
1.40001
1.40001
1.40001
1.40001
1.40001
1.40001
1.40001
1.40001
1.40001
1.40001
1.40001
1.40001
1.40001
1.40001
1.40001
1.40001
1.40001
1.40001
1.40001
1.40001
1.40001
1.6475
4.50121
5.46872
5.47893
5.49426
5.50749
5.52205
5.54121
5.56664
5.59585
5.62324
5.64476
5.65982
5.6684
5.67187
5.67644
5.69056
5.71621
5.74664
5.77512
5.80122
5.8196
5.83029
5.83281
5.8252
5.81744
5.81623
5.82732
5.8455
5.8658
5.88308
5.89452
5.89976
5.90129
5.90245
5.90489
5.90785
5.90982
5.90779
5.89647
5.8682
5.81877
5.76037
5.71728
5.70209
1.40001
1.40001
1.40001
1.40001
1.40001
1.40001
1.40001
1.40001
1.40001
1.40001
1.40001
1.40001
1.40001
1.40001
1.40001
1.40001
1.40001
1.40001
1.40001
1.40001
1.40001
1.40001
1.40001
1.40001
1.40001
1.40001
1.40001
1.40001
1.40001
1.40001
1.40001
1.40001
1.40001
1.40001
1.40001
1.40001
1.40001
1.40001
1.40001
1.40001
1.40001
1.40001
1.40001
1.40001
1.40001
1.40001
1.40001
1.40001
1.40001
1.40001
1.40001
1.60532
4.43111
5.46865
5.48024
5.49265
5.50311
5.51757
5.5379
5.56479
5.59435
5.62061
5.64068
5.65512
5.66452
5.66986
5.67638
5.69143
5.71672
5.7458
5.77316
5.79823
5.81573
5.82567
5.82823
5.82124
5.81514
5.81549
5.82694
5.84367
5.86153
5.8768
5.88758
5.89358
5.89694
5.90021
5.90378
5.90639
5.9068
5.90293
5.89038
5.86136
5.81174
5.75381
5.71144
5.69677
1.40001
1.40001
1.40001
1.40001
1.40001
1.40001
1.40001
1.40001
1.40001
1.40001
1.40001
1.40001
1.40001
1.40001
1.40001
1.40001
1.40001
1.40001
1.40001
1.40001
1.40001
1.40001
1.40001
1.40001
1.40001
1.40001
1.40001
1.40001
1.40001
1.40001
1.40001
1.40001
1.40001
1.40001
1.40001
1.40001
1.40001
1.40001
1.40001
1.40001
1.40001
1.40001
1.40001
1.40001
1.40001
1.40001
1.40001
1.40001
1.40001
1.40001
1.40001
1.54921
4.33935
5.4749
5.4846
5.49311
5.50155
5.51553
5.53628
5.56343
5.5917
5.61583
5.6346
5.64926
5.66019
5.66768
5.67572
5.69101
5.71558
5.74346
5.77029
5.79466
5.81132
5.82026
5.8226
5.8161
5.81142
5.81382
5.82592
5.84161
5.85724
5.87039
5.88004
5.88625
5.89115
5.89638
5.90109
5.90377
5.90308
5.89756
5.8838
5.85395
5.80405
5.74652
5.70486
5.69078
1.40001
1.40001
1.40001
1.40001
1.40001
1.40001
1.40001
1.40001
1.40001
1.40001
1.40001
1.40001
1.40001
1.40001
1.40001
1.40001
1.40001
1.40001
1.40001
1.40001
1.40001
1.40001
1.40001
1.40001
1.40001
1.40001
1.40001
1.40001
1.40001
1.40001
1.40001
1.40001
1.40001
1.40001
1.40001
1.40001
1.40001
1.40001
1.40001
1.40001
1.40001
1.40001
1.40001
1.40001
1.40001
1.40001
1.40001
1.40001
1.40001
1.40001
1.40001
1.46257
4.20312
5.49145
5.48812
5.49009
5.49738
5.51202
5.53409
5.5611
5.58719
5.6091
5.62738
5.64344
5.65656
5.66593
5.67438
5.6889
5.71221
5.73924
5.76613
5.79029
5.80656
5.81457
5.81623
5.80994
5.80627
5.81061
5.82355
5.83888
5.85298
5.86434
5.87268
5.87856
5.88433
5.8909
5.89653
5.89952
5.89831
5.89171
5.8769
5.84627
5.79601
5.7387
5.69756
5.68404
1.40001
1.40001
1.40001
1.40001
1.40001
1.40001
1.40001
1.40001
1.40001
1.40001
1.40001
1.40001
1.40001
1.40001
1.40001
1.40001
1.40001
1.40001
1.40001
1.40001
1.40001
1.40001
1.40001
1.40001
1.40001
1.40001
1.40001
1.40001
1.40001
1.40001
1.40001
1.40001
1.40001
1.40001
1.40001
1.40001
1.40001
1.40001
1.40001
1.40001
1.40001
1.40001
1.40001
1.40001
1.40001
1.40001
1.40001
1.40001
1.40001
1.40001
1.40001
1.40301
4.04481
5.48936
5.47853
5.48071
5.49125
5.50875
5.53198
5.55698
5.57963
5.60014
5.61958
5.63821
5.65377
5.66463
5.6727
5.68584
5.70765
5.73377
5.76084
5.78503
5.80138
5.80883
5.80945
5.80307
5.79991
5.80573
5.81951
5.83505
5.8483
5.85847
5.86579
5.87098
5.87678
5.88383
5.88998
5.89332
5.89216
5.88521
5.86976
5.83853
5.78787
5.73056
5.68966
5.67658
1.40001
1.40001
1.40001
1.40001
1.40001
1.40001
1.40001
1.40001
1.40001
1.40001
1.40001
1.40001
1.40001
1.40001
1.40001
1.40001
1.40001
1.40001
1.40001
1.40001
1.40001
1.40001
1.40001
1.40001
1.40001
1.40001
1.40001
1.40001
1.40001
1.40001
1.40001
1.40001
1.40001
1.40001
1.40001
1.40001
1.40001
1.40001
1.40001
1.40001
1.40001
1.40001
1.40001
1.40001
1.40001
1.40001
1.40001
1.40001
1.40001
1.40001
1.40001
1.40003
3.84621
5.47166
5.46938
5.47221
5.4854
5.50392
5.52655
5.54911
5.57012
5.5915
5.61324
5.6344
5.65178
5.66323
5.67034
5.68235
5.70303
5.72809
5.75488
5.77878
5.79523
5.80266
5.80225
5.79563
5.79282
5.79964
5.81405
5.82998
5.84292
5.8526
5.85943
5.86394
5.86903
5.87565
5.88176
5.88535
5.88463
5.87796
5.86226
5.83063
5.77956
5.72193
5.68096
5.66814
1.40001
1.40001
1.40001
1.40001
1.40001
1.40001
1.40001
1.40001
1.40001
1.40001
1.40001
1.40001
1.40001
1.40001
1.40001
1.40001
1.40001
1.40001
1.40001
1.40001
1.40001
1.40001
1.40001
1.40001
1.40001
1.40001
1.40001
1.40001
1.40001
1.40001
1.40001
1.40001
1.40001
1.40001
1.40001
1.40001
1.40001
1.40001
1.40001
1.40001
1.40001
1.40001
1.40001
1.40001
1.40001
1.40001
1.40001
1.40001
1.40001
1.40001
1.40001
1.40001
3.63608
5.43831
5.4602
5.46408
5.47911
5.4976
5.51894
5.5397
5.56105
5.58443
5.60859
5.63136
5.64941
5.66081
5.66742
5.67923
5.69937
5.7235
5.74932
5.77219
5.78817
5.79547
5.79421
5.7876
5.78528
5.79278
5.80761
5.82379
5.83667
5.84631
5.85312
5.85712
5.86109
5.86656
5.87207
5.87577
5.87572
5.86974
5.85419
5.82241
5.771
5.71294
5.67173
5.65906
1.40001
1.40001
1.40001
1.40001
1.40001
1.40001
1.40001
1.40001
1.40001
1.40001
1.40001
1.40001
1.40001
1.40001
1.40001
1.40001
1.40001
1.40001
1.40001
1.40001
1.40001
1.40001
1.40001
1.40001
1.40001
1.40001
1.40001
1.40001
1.40001
1.40001
1.40001
1.40001
1.40001
1.40001
1.40001
1.40001
1.40001
1.40001
1.40001
1.40001
1.40001
1.40001
1.40001
1.40001
1.40001
1.40001
1.40001
1.40001
1.40001
1.40001
1.40001
1.40001
3.41581
5.39446
5.45337
5.45739
5.47337
5.49072
5.51057
5.53082
5.55399
5.57941
5.60517
5.62823
5.64642
5.65794
5.66487
5.67698
5.69669
5.72042
5.74479
5.76584
5.78047
5.78692
5.78483
5.77847
5.77689
5.78511
5.80036
5.81665
5.82947
5.83926
5.84625
5.84996
5.85283
5.85696
5.86151
5.86516
5.86576
5.86055
5.84537
5.81353
5.76178
5.70319
5.66167
5.64907
1.40001
1.40001
1.40001
1.40001
1.40001
1.40001
1.40001
1.40001
1.40001
1.40001
1.40001
1.40001
1.40001
1.40001
1.40001
1.40001
1.40001
1.40001
1.40001
1.40001
1.40001
1.40001
1.40001
1.40001
1.40001
1.40001
1.40001
1.40001
1.40001
1.40001
1.40001
1.40001
1.40001
1.40001
1.40001
1.40001
1.40001
1.40001
1.40001
1.40001
1.40001
1.40001
1.40001
1.40001
1.40001
1.40001
1.40001
1.40001
1.40001
1.40001
1.40001
1.40001
3.18411
5.34056
5.44962
5.45266
5.46874
5.48494
5.504
5.52458
5.54909
5.57512
5.60122
5.62446
5.64332
5.65551
5.66327
5.6755
5.69419
5.71765
5.74096
5.75993
5.77275
5.77771
5.77458
5.76833
5.76748
5.77656
5.79237
5.80868
5.82135
5.83121
5.83839
5.84193
5.84395
5.84685
5.85034
5.85364
5.85465
5.85015
5.83542
5.80366
5.75169
5.69265
5.65087
5.63828
1.40001
1.40001
1.40001
1.40001
1.40001
1.40001
1.40001
1.40001
1.40001
1.40001
1.40001
1.40001
1.40001
1.40001
1.40001
1.40001
1.40001
1.40001
1.40001
1.40001
1.40001
1.40001
1.40001
1.40001
1.40001
1.40001
1.40001
1.40001
1.40001
1.40001
1.40001
1.40001
1.40001
1.40001
1.40001
1.40001
1.40001
1.40001
1.40001
1.40001
1.40001
1.40001
1.40001
1.40001
1.40001
1.40001
1.40001
1.40001
1.40001
1.40001
1.40001
1.40001
2.9389
5.27564
5.4471
5.44944
5.46539
5.48161
5.50043
5.52087
5.54511
5.57099
5.59709
5.62135
5.64102
5.65367
5.66222
5.67377
5.69096
5.71397
5.73697
5.75434
5.76545
5.76877
5.76426
5.75748
5.75686
5.76688
5.78326
5.79959
5.81233
5.82217
5.82946
5.83291
5.8344
5.83624
5.83872
5.84145
5.84252
5.83853
5.8243
5.79283
5.74083
5.68137
5.63921
5.62647
1.40001
1.40001
1.40001
1.40001
1.40001
1.40001
1.40001
1.40001
1.40001
1.40001
1.40001
1.40001
1.40001
1.40001
1.40001
1.40001
1.40001
1.40001
1.40001
1.40001
1.40001
1.40001
1.40001
1.40001
1.40001
1.40001
1.40001
1.40001
1.40001
1.40001
1.40001
1.40001
1.40001
1.40001
1.40001
1.40001
1.40001
1.40001
1.40001
1.40001
1.40001
1.40001
1.40001
1.40001
1.40001
1.40001
1.40001
1.40001
1.40001
1.40001
1.40001
1.40001
2.68289
5.19335
5.44366
5.44602
5.4629
5.48035
5.49939
5.52003
5.54296
5.56857
5.59457
5.61913
5.63909
5.65175
5.6608
5.67097
5.68679
5.7084
5.73091
5.74777
5.75768
5.75984
5.75405
5.74626
5.74521
5.75584
5.77275
5.78933
5.80233
5.81217
5.8195
5.82285
5.82398
5.82494
5.82653
5.82846
5.82921
5.82543
5.81172
5.78087
5.72913
5.66927
5.62644
5.6133
1.40001
1.40001
1.40001
1.40001
1.40001
1.40001
1.40001
1.40001
1.40001
1.40001
1.40001
1.40001
1.40001
1.40001
1.40001
1.40001
1.40001
1.40001
1.40001
1.40001
1.40001
1.40001
1.40001
1.40001
1.40001
1.40001
1.40001
1.40001
1.40001
1.40001
1.40001
1.40001
1.40001
1.40001
1.40001
1.40001
1.40001
1.40001
1.40001
1.40001
1.40001
1.40001
1.40001
1.40001
1.40001
1.40001
1.40001
1.40001
1.40001
1.40001
1.40001
1.40001
2.4213
5.08285
5.44398
5.44608
5.46319
5.48072
5.49986
5.52074
5.54358
5.56825
5.59357
5.61758
5.63706
5.6495
5.65845
5.6664
5.67973
5.69921
5.72092
5.73828
5.74818
5.75026
5.74402
5.73531
5.73336
5.74386
5.76079
5.7775
5.79077
5.80065
5.80808
5.81142
5.81245
5.81292
5.81385
5.81477
5.81475
5.81076
5.79751
5.76756
5.71638
5.65612
5.61227
5.59838
1.40001
1.40001
1.40001
1.40001
1.40001
1.40001
1.40001
1.40001
1.40001
1.40001
1.40001
1.40001
1.40001
1.40001
1.40001
1.40001
1.40001
1.40001
1.40001
1.40001
1.40001
1.40001
1.40001
1.40001
1.40001
1.40001
1.40001
1.40001
1.40001
1.40001
1.40001
1.40001
1.40001
1.40001
1.40001
1.40001
1.40001
1.40001
1.40001
1.40001
1.40001
1.40001
1.40001
1.40001
1.40001
1.40001
1.40001
1.40001
1.40001
1.40001
1.40001
1.40001
2.16381
4.94298
5.45359
5.44934
5.46639
5.48313
5.50217
5.52276
5.54469
5.56842
5.59269
5.61546
5.6336
5.64559
5.65357
5.6593
5.6698
5.68689
5.70759
5.72561
5.73652
5.73935
5.73339
5.72395
5.72084
5.73048
5.74697
5.76384
5.7777
5.78797
5.79555
5.79886
5.79983
5.80003
5.80026
5.8001
5.79892
5.79426
5.78147
5.75273
5.7024
5.6418
5.59668
5.58179
1.40001
1.40001
1.40001
1.40001
1.40001
1.40001
1.40001
1.40001
1.40001
1.40001
1.40001
1.40001
1.40001
1.40001
1.40001
1.40001
1.40001
1.40001
1.40001
1.40001
1.40001
1.40001
1.40001
1.40001
1.40001
1.40001
1.40001
1.40001
1.40001
1.40001
1.40001
1.40001
1.40001
1.40001
1.40001
1.40001
1.40001
1.40001
1.40001
1.40001
1.40001
1.40001
1.40001
1.40001
1.40001
1.40001
1.40001
1.40001
1.40001
1.40001
1.40001
1.40001
1.91252
4.78006
5.47455
5.46058
5.47336
5.48458
5.50097
5.52094
5.54292
5.56628
5.58958
5.61122
5.62822
5.64017
5.64708
5.65046
5.65723
5.67095
5.69
5.70872
5.72171
5.72646
5.722
5.71272
5.70902
5.71763
5.73331
5.74972
5.7636
5.77384
5.78126
5.78451
5.78562
5.78586
5.78567
5.78463
5.78207
5.77644
5.76393
5.73632
5.68682
5.62581
5.5793
5.56327
1.40001
1.40001
1.40001
1.40001
1.40001
1.40001
1.40001
1.40001
1.40001
1.40001
1.40001
1.40001
1.40001
1.40001
1.40001
1.40001
1.40001
1.40001
1.40001
1.40001
1.40001
1.40001
1.40001
1.40001
1.40001
1.40001
1.40001
1.40001
1.40001
1.40001
1.40001
1.40001
1.40001
1.40001
1.40001
1.40001
1.40001
1.40001
1.40001
1.40001
1.40001
1.40001
1.40001
1.40001
1.40001
1.40001
1.40001
1.40001
1.40001
1.40001
1.40001
1.40001
1.68455
4.58109
5.49368
5.46545
5.47609
5.48436
5.49936
5.51903
5.54072
5.56269
5.58365
5.60288
5.61818
5.62987
5.63551
5.63752
5.64198
5.65324
5.67116
5.69084
5.70631
5.71332
5.7108
5.702
5.69742
5.7041
5.71831
5.73379
5.74759
5.75787
5.7652
5.76854
5.76982
5.77015
5.76962
5.7678
5.76392
5.7572
5.74471
5.71797
5.66915
5.60779
5.56009
5.5431
1.40001
1.40001
1.40001
1.40001
1.40001
1.40001
1.40001
1.40001
1.40001
1.40001
1.40001
1.40001
1.40001
1.40001
1.40001
1.40001
1.40001
1.40001
1.40001
1.40001
1.40001
1.40001
1.40001
1.40001
1.40001
1.40001
1.40001
1.40001
1.40001
1.40001
1.40001
1.40001
1.40001
1.40001
1.40001
1.40001
1.40001
1.40001
1.40001
1.40001
1.40001
1.40001
1.40001
1.40001
1.40001
1.40001
1.40001
1.40001
1.40001
1.40001
1.40001
1.40001
1.4964
4.31126
5.46413
5.44797
5.46093
5.47332
5.49006
5.50952
5.53052
5.5517
5.57206
5.59077
5.60678
5.61967
5.62494
5.62594
5.62763
5.63496
5.64973
5.66889
5.6865
5.69649
5.6972
5.69022
5.68567
5.69076
5.70348
5.71772
5.73088
5.74082
5.74772
5.75088
5.75204
5.75235
5.75175
5.74939
5.74441
5.73674
5.72405
5.69767
5.64904
5.58714
5.53839
5.52064
1.40001
1.40001
1.40001
1.40001
1.40001
1.40001
1.40001
1.40001
1.40001
1.40001
1.40001
1.40001
1.40001
1.40001
1.40001
1.40001
1.40001
1.40001
1.40001
1.40001
1.40001
1.40001
1.40001
1.40001
1.40001
1.40001
1.40001
1.40001
1.40001
1.40001
1.40001
1.40001
1.40001
1.40001
1.40001
1.40001
1.40001
1.40001
1.40001
1.40001
1.40001
1.40001
1.40001
1.40001
1.40001
1.40001
1.40001
1.40001
1.40001
1.40001
1.40001
1.40001
1.40456
3.95633
5.40094
5.41979
5.43843
5.45869
5.47872
5.49845
5.51847
5.53844
5.5581
5.57621
5.59295
5.60563
5.61013
5.61059
5.61114
5.61663
5.62955
5.64827
5.66711
5.68
5.68365
5.67845
5.6744
5.67788
5.68891
5.70158
5.71349
5.72266
5.72872
5.73126
5.73201
5.73219
5.7316
5.7288
5.72303
5.7146
5.70161
5.67518
5.62638
5.56381
5.51424
5.49603
1.40001
1.40001
1.40001
1.40001
1.40001
1.40001
1.40001
1.40001
1.40001
1.40001
1.40001
1.40001
1.40001
1.40001
1.40001
1.40001
1.40001
1.40001
1.40001
1.40001
1.40001
1.40001
1.40001
1.40001
1.40001
1.40001
1.40001
1.40001
1.40001
1.40001
1.40001
1.40001
1.40001
1.40001
1.40001
1.40001
1.40001
1.40001
1.40001
1.40001
1.40001
1.40001
1.40001
1.40001
1.40001
1.40001
1.40001
1.40001
1.40001
1.40001
1.40001
1.40001
1.40003
3.56239
5.32932
5.39178
5.41324
5.43828
5.46092
5.48233
5.50275
5.52279
5.54295
5.56159
5.57925
5.59167
5.59606
5.59643
5.59651
5.6011
5.61242
5.62991
5.64867
5.66322
5.66892
5.66624
5.66308
5.66531
5.67454
5.68534
5.69545
5.70341
5.70815
5.7096
5.70985
5.70982
5.70914
5.70606
5.69988
5.69092
5.67749
5.6505
5.60091
5.53718
5.48659
5.46783
1.40001
1.40001
1.40001
1.40001
1.40001
1.40001
1.40001
1.40001
1.40001
1.40001
1.40001
1.40001
1.40001
1.40001
1.40001
1.40001
1.40001
1.40001
1.40001
1.40001
1.40001
1.40001
1.40001
1.40001
1.40001
1.40001
1.40001
1.40001
1.40001
1.40001
1.40001
1.40001
1.40001
1.40001
1.40001
1.40001
1.40001
1.40001
1.40001
1.40001
1.40001
1.40001
1.40001
1.40001
1.40001
1.40001
1.40001
1.40001
1.40001
1.40001
1.40001
1.40001
1.40001
3.14397
5.245
5.38106
5.40054
5.42473
5.44833
5.4698
5.49049
5.5106
5.53077
5.54922
5.56642
5.57796
5.58242
5.58326
5.58389
5.58858
5.59892
5.61492
5.63252
5.64695
5.65365
5.65343
5.65097
5.65234
5.65981
5.66868
5.6767
5.68299
5.68593
5.68599
5.68571
5.68514
5.68406
5.68051
5.67389
5.66442
5.6504
5.6227
5.57223
5.50728
5.45563
5.43635
1.40001
1.40001
1.40001
1.40001
1.40001
1.40001
1.40001
1.40001
1.40001
1.40001
1.40001
1.40001
1.40001
1.40001
1.40001
1.40001
1.40001
1.40001
1.40001
1.40001
1.40001
1.40001
1.40001
1.40001
1.40001
1.40001
1.40001
1.40001
1.40001
1.40001
1.40001
1.40001
1.40001
1.40001
1.40001
1.40001
1.40001
1.40001
1.40001
1.40001
1.40001
1.40001
1.40001
1.40001
1.40001
1.40001
1.40001
1.40001
1.40001
1.40001
1.40001
1.40001
1.40001
2.71789
5.13309
5.39114
5.39678
5.41566
5.43672
5.45721
5.47849
5.49938
5.51957
5.53752
5.55358
5.56411
5.56888
5.57087
5.57313
5.57865
5.58858
5.60322
5.61914
5.63211
5.63859
5.63976
5.63746
5.6384
5.64396
5.65096
5.65703
5.66111
5.66193
5.66048
5.65943
5.65804
5.6563
5.65218
5.64514
5.63525
5.6205
5.59176
5.53993
5.4731
5.41974
5.39932
1.40001
1.40001
1.40001
1.40001
1.40001
1.40001
1.40001
1.40001
1.40001
1.40001
1.40001
1.40001
1.40001
1.40001
1.40001
1.40001
1.40001
1.40001
1.40001
1.40001
1.40001
1.40001
1.40001
1.40001
1.40001
1.40001
1.40001
1.40001
1.40001
1.40001
1.40001
1.40001
1.40001
1.40001
1.40001
1.40001
1.40001
1.40001
1.40001
1.40001
1.40001
1.40001
1.40001
1.40001
1.40001
1.40001
1.40001
1.40001
1.40001
1.40001
1.40001
1.40001
1.40001
2.27907
4.95499
5.43874
5.42617
5.43217
5.44332
5.45846
5.47726
5.49763
5.51642
5.53174
5.54467
5.55287
5.55734
5.56055
5.56443
5.57045
5.57965
5.59276
5.60719
5.61862
5.62437
5.62568
5.6228
5.62263
5.62626
5.6316
5.63577
5.63781
5.6363
5.63303
5.63072
5.62822
5.62548
5.62042
5.61234
5.60135
5.58532
5.55545
5.50254
5.43419
5.3792
5.35774
1.40001
1.40001
1.40001
1.40001
1.40001
1.40001
1.40001
1.40001
1.40001
1.40001
1.40001
1.40001
1.40001
1.40001
1.40001
1.40001
1.40001
1.40001
1.40001
1.40001
1.40001
1.40001
1.40001
1.40001
1.40001
1.40001
1.40001
1.40001
1.40001
1.40001
1.40001
1.40001
1.40001
1.40001
1.40001
1.40001
1.40001
1.40001
1.40001
1.40001
1.40001
1.40001
1.40001
1.40001
1.40001
1.40001
1.40001
1.40001
1.40001
1.40001
1.40001
1.40001
1.40001
1.85378
4.7804
5.49783
5.43648
5.44035
5.4448
5.45603
5.47298
5.49268
5.51124
5.5267
5.53891
5.54582
5.54983
5.55338
5.5579
5.56365
5.57138
5.58236
5.59522
5.60581
5.61107
5.61131
5.60753
5.60549
5.60679
5.61022
5.61231
5.61255
5.60886
5.60361
5.59929
5.59519
5.59101
5.58469
5.57531
5.56303
5.54569
5.51457
5.46
5.38896
5.33106
5.30729
1.40001
1.40001
1.40001
1.40001
1.40001
1.40001
1.40001
1.40001
1.40001
1.40001
1.40001
1.40001
1.40001
1.40001
1.40001
1.40001
1.40001
1.40001
1.40001
1.40001
1.40001
1.40001
1.40001
1.40001
1.40001
1.40001
1.40001
1.40001
1.40001
1.40001
1.40001
1.40001
1.40001
1.40001
1.40001
1.40001
1.40001
1.40001
1.40001
1.40001
1.40001
1.40001
1.40001
1.40001
1.40001
1.40001
1.40001
1.40001
1.40001
1.40001
1.40001
1.40001
1.40001
1.50367
4.41032
5.48483
5.44731
5.45483
5.45861
5.46442
5.47546
5.49079
5.50619
5.52049
5.53167
5.5379
5.5415
5.54492
5.54946
5.55456
5.56056
5.56874
5.57981
5.59024
5.59591
5.59567
5.591
5.58703
5.58546
5.58631
5.58635
5.58475
5.57892
5.57162
5.56479
5.55868
5.55264
5.5446
5.53313
5.51833
5.49829
5.4648
5.40833
5.33512
5.27482
5.24978
1.40001
1.40001
1.40001
1.40001
1.40001
1.40001
1.40001
1.40001
1.40001
1.40001
1.40001
1.40001
1.40001
1.40001
1.40001
1.40001
1.40001
1.40001
1.40001
1.40001
1.40001
1.40001
1.40001
1.40001
1.40001
1.40001
1.40001
1.40001
1.40001
1.40001
1.40001
1.40001
1.40001
1.40001
1.40001
1.40001
1.40001
1.40001
1.40001
1.40001
1.40001
1.40001
1.40001
1.40001
1.40001
1.40001
1.40001
1.40001
1.40001
1.40001
1.40001
1.40001
1.40001
1.40288
3.91274
5.35681
5.38508
5.41781
5.43933
5.45337
5.46514
5.47796
5.49194
5.50727
5.5209
5.52962
5.53552
5.53984
5.54385
5.54718
5.55008
5.55404
5.56178
5.57078
5.57665
5.57652
5.57142
5.56632
5.56199
5.56011
5.55823
5.55444
5.54645
5.53681
5.52718
5.51862
5.51013
5.49959
5.48501
5.46705
5.44436
5.40883
5.34987
5.27185
5.20538
5.17507
1.40001
1.40001
1.40001
1.40001
1.40001
1.40001
1.40001
1.40001
1.40001
1.40001
1.40001
1.40001
1.40001
1.40001
1.40001
1.40001
1.40001
1.40001
1.40001
1.40001
1.40001
1.40001
1.40001
1.40001
1.40001
1.40001
1.40001
1.40001
1.40001
1.40001
1.40001
1.40001
1.40001
1.40001
1.40001
1.40001
1.40001
1.40001
1.40001
1.40001
1.40001
1.40001
1.40001
1.40001
1.40001
1.40001
1.40001
1.40001
1.40001
1.40001
1.40001
1.40001
1.40001
1.40001
3.36836
5.24112
5.34726
5.39616
5.42127
5.43665
5.44883
5.46065
5.47387
5.4883
5.50223
5.51226
5.52002
5.52637
5.53174
5.53493
5.53607
5.53697
5.54163
5.5481
5.55319
5.55317
5.54815
5.54258
5.53667
5.53238
5.52805
5.52158
5.5112
5.49894
5.48637
5.47512
5.46374
5.4497
5.43115
5.40861
5.38055
5.33966
5.27454
5.1901
5.11735
5.0864
1.40001
1.40001
1.40001
1.40001
1.40001
1.40001
1.40001
1.40001
1.40001
1.40001
1.40001
1.40001
1.40001
1.40001
1.40001
1.40001
1.40001
1.40001
1.40001
1.40001
1.40001
1.40001
1.40001
1.40001
1.40001
1.40001
1.40001
1.40001
1.40001
1.40001
1.40001
1.40001
1.40001
1.40001
1.40001
1.40001
1.40001
1.40001
1.40001
1.40001
1.40001
1.40001
1.40001
1.40001
1.40001
1.40001
1.40001
1.40001
1.40001
1.40001
1.40001
1.40001
1.40001
1.40001
2.82946
5.08726
5.3391
5.37801
5.40335
5.42038
5.43156
5.44326
5.45573
5.4689
5.48255
5.49363
5.50263
5.51003
5.51548
5.51781
5.51766
5.5172
5.52018
5.52452
5.52793
5.52717
5.52193
5.51546
5.50857
5.50241
5.49605
5.48709
5.47415
5.45892
5.44318
5.42895
5.41381
5.39481
5.37127
5.34211
5.30668
5.25979
5.18917
5.09568
5.0068
4.95545
1.40001
1.40001
1.40001
1.40001
1.40001
1.40001
1.40001
1.40001
1.40001
1.40001
1.40001
1.40001
1.40001
1.40001
1.40001
1.40001
1.40001
1.40001
1.40001
1.40001
1.40001
1.40001
1.40001
1.40001
1.40001
1.40001
1.40001
1.40001
1.40001
1.40001
1.40001
1.40001
1.40001
1.40001
1.40001
1.40001
1.40001
1.40001
1.40001
1.40001
1.40001
1.40001
1.40001
1.40001
1.40001
1.40001
1.40001
1.40001
1.40001
1.40001
1.40001
1.40001
1.40001
1.40001
2.28362
4.9152
5.38986
5.38437
5.39227
5.4031
5.41406
5.42673
5.43885
5.45092
5.46356
5.47427
5.48289
5.48996
5.49481
5.49672
5.49662
5.49656
5.49885
5.501
5.50199
5.49969
5.49363
5.48609
5.47842
5.47081
5.4626
5.4514
5.43585
5.41727
5.39823
5.38011
5.35978
5.33531
5.30558
5.26939
5.2243
5.16448
5.07697
4.95554
4.83872
4.77141
1.40001
1.40001
1.40001
1.40001
1.40001
1.40001
1.40001
1.40001
1.40001
1.40001
1.40001
1.40001
1.40001
1.40001
1.40001
1.40001
1.40001
1.40001
1.40001
1.40001
1.40001
1.40001
1.40001
1.40001
1.40001
1.40001
1.40001
1.40001
1.40001
1.40001
1.40001
1.40001
1.40001
1.40001
1.40001
1.40001
1.40001
1.40001
1.40001
1.40001
1.40001
1.40001
1.40001
1.40001
1.40001
1.40001
1.40001
1.40001
1.40001
1.40001
1.40001
1.40001
1.40001
1.40001
1.75226
4.71477
5.47061
5.40183
5.39545
5.39902
5.40805
5.41862
5.4287
5.438
5.44766
5.45596
5.46252
5.46804
5.4718
5.47361
5.47443
5.47572
5.47786
5.47844
5.47699
5.47231
5.46479
5.45572
5.44662
5.43738
5.4273
5.41414
5.39622
5.37442
5.35164
5.32837
5.30257
5.27217
5.23493
5.18951
5.13161
5.05371
4.94515
4.79928
4.63764
4.5366
1.40001
1.40001
1.40001
1.40001
1.40001
1.40001
1.40001
1.40001
1.40001
1.40001
1.40001
1.40001
1.40001
1.40001
1.40001
1.40001
1.40001
1.40001
1.40001
1.40001
1.40001
1.40001
1.40001
1.40001
1.40001
1.40001
1.40001
1.40001
1.40001
1.40001
1.40001
1.40001
1.40001
1.40001
1.40001
1.40001
1.40001
1.40001
1.40001
1.40001
1.40001
1.40001
1.40001
1.40001
1.40001
1.40001
1.40001
1.40001
1.40001
1.40001
1.40001
1.40001
1.40001
1.40001
1.42832
4.21039
5.41546
5.38119
5.39207
5.39667
5.40591
5.41378
5.42127
5.42821
5.43577
5.44198
5.44615
5.44907
5.45072
5.45164
5.45288
5.45499
5.45685
5.45627
5.45218
5.44519
5.4359
5.42501
5.41384
5.4026
5.39092
5.37623
5.35611
5.33108
5.3034
5.27434
5.24285
5.20581
5.16005
5.10354
5.03143
4.93459
4.79605
4.5831
4.19341
3.28767
1.40001
1.40001
1.40001
1.40001
1.40001
1.40001
1.40001
1.40001
1.40001
1.40001
1.40001
1.40001
1.40001
1.40001
1.40001
1.40001
1.40001
1.40001
1.40001
1.40001
1.40001
1.40001
1.40001
1.40001
1.40001
1.40001
1.40001
1.40001
1.40001
1.40001
1.40001
1.40001
1.40001
1.40001
1.40001
1.40001
1.40001
1.40001
1.40001
1.40001
1.40001
1.40001
1.40001
1.40001
1.40001
1.40001
1.40001
1.40001
1.40001
1.40001
1.40001
1.40001
1.40001
1.40001
1.4001
3.51917
5.23877
5.34392
5.37626
5.3892
5.39779
5.40373
5.4097
5.41684
5.42511
5.43067
5.43291
5.43323
5.43282
5.43254
5.43337
5.43527
5.43642
5.43459
5.42847
5.41972
5.40861
5.39547
5.38151
5.36749
5.3537
5.33728
5.3151
5.28676
5.25393
5.21893
5.18122
5.13708
5.08241
5.01363
4.9251
4.80317
4.62496
4.34303
3.88221
2.88807
1.40001
1.40001
1.40001
1.40001
1.40001
1.40001
1.40001
1.40001
1.40001
1.40001
1.40001
1.40001
1.40001
1.40001
1.40001
1.40001
1.40001
1.40001
1.40001
1.40001
1.40001
1.40001
1.40001
1.40001
1.40001
1.40001
1.40001
1.40001
1.40001
1.40001
1.40001
1.40001
1.40001
1.40001
1.40001
1.40001
1.40001
1.40001
1.40001
1.40001
1.40001
1.40001
1.40001
1.40001
1.40001
1.40001
1.40001
1.40001
1.40001
1.40001
1.40001
1.40001
1.40001
1.40001
1.4
2.89413
5.09889
5.3302
5.35837
5.37575
5.38497
5.39019
5.39644
5.40441
5.41399
5.42049
5.42268
5.42159
5.41947
5.41772
5.4171
5.41734
5.4163
5.4125
5.40455
5.39433
5.38158
5.36644
5.35001
5.33299
5.31652
5.29796
5.27374
5.24223
5.20461
5.16348
5.11892
5.06724
5.00341
4.9225
4.81709
4.6754
4.46494
4.1755
3.60861
2.74957
1.40001
1.40001
1.40001
1.40001
1.40001
1.40001
1.40001
1.40001
1.40001
1.40001
1.40001
1.40001
1.40001
1.40001
1.40001
1.40001
1.40001
1.40001
1.40001
1.40001
1.40001
1.40001
1.40001
1.40001
1.40001
1.40001
1.40001
1.40001
1.40001
1.40001
1.40001
1.40001
1.40001
1.40001
1.40001
1.40001
1.40001
1.40001
1.40001
1.40001
1.40001
1.40001
1.40001
1.40001
1.40001
1.40001
1.40001
1.40001
1.40001
1.40001
1.40001
1.40001
1.40001
1.40001
1.4
2.24641
4.88771
5.36254
5.35403
5.35929
5.36595
5.37421
5.38189
5.38994
5.40007
5.40771
5.41104
5.41045
5.40822
5.40555
5.40331
5.40091
5.39677
5.39041
5.38079
5.3692
5.35507
5.33835
5.31985
5.29963
5.27968
5.2582
5.23165
5.19743
5.15579
5.10887
5.05718
4.99784
4.92485
4.83319
4.71336
4.556
4.32918
4.00512
3.46185
2.78434
1.40001
1.40001
1.40001
1.40001
1.40001
1.40001
1.40001
1.40001
1.40001
1.40001
1.40001
1.40001
1.40001
1.40001
1.40001
1.40001
1.40001
1.40001
1.40001
1.40001
1.40001
1.40001
1.40001
1.40001
1.40001
1.40001
1.40001
1.40001
1.40001
1.40001
1.40001
1.40001
1.40001
1.40001
1.40001
1.40001
1.40001
1.40001
1.40001
1.40001
1.40001
1.40001
1.40001
1.40001
1.40001
1.40001
1.40001
1.40001
1.40001
1.40001
1.40001
1.40001
1.40001
1.40001
1.40001
1.64031
4.58532
5.43035
5.37512
5.35127
5.35375
5.36159
5.36793
5.37442
5.38335
5.39146
5.39652
5.39757
5.39632
5.39352
5.39004
5.38485
5.37736
5.3679
5.35648
5.34371
5.32872
5.31105
5.29076
5.26728
5.24315
5.21797
5.18875
5.15228
5.10753
5.0557
4.99729
4.93055
4.84914
4.7479
4.61751
4.44587
4.21284
3.87873
3.40207
2.85335
1.40001
1.40001
1.40001
1.40001
1.40001
1.40001
1.40001
1.40001
1.40001
1.40001
1.40001
1.40001
1.40001
1.40001
1.40001
1.40001
1.40001
1.40001
1.40001
1.40001
1.40001
1.40001
1.40001
1.40001
1.40001
1.40001
1.40001
1.40001
1.40001
1.40001
1.40001
1.40001
1.40001
1.40001
1.40001
1.40001
1.40001
1.40001
1.40001
1.40001
1.40001
1.40001
1.40001
1.40001
1.40001
1.40001
1.40001
1.40001
1.40001
1.40001
1.40001
1.40001
1.40001
1.40001
1.40001
1.41081
3.95581
5.29141
5.31507
5.33512
5.34296
5.35159
5.35559
5.35908
5.36485
5.3714
5.37713
5.38008
5.38034
5.37819
5.37447
5.3676
5.35769
5.34531
5.33196
5.31808
5.30241
5.28414
5.26216
5.23552
5.2069
5.1774
5.1451
5.10672
5.05979
5.00422
4.94
4.86628
4.77762
4.66835
4.53056
4.35133
4.11702
3.79485
3.39308
2.93739
1.40001
1.40001
1.40001
1.40001
1.40001
1.40001
1.40001
1.40001
1.40001
1.40001
1.40001
1.40001
1.40001
1.40001
1.40001
1.40001
1.40001
1.40001
1.40001
1.40001
1.40001
1.40001
1.40001
1.40001
1.40001
1.40001
1.40001
1.40001
1.40001
1.40001
1.40001
1.40001
1.40001
1.40001
1.40001
1.40001
1.40001
1.40001
1.40001
1.40001
1.40001