/*--------------------------------*- C++ -*----------------------------------*\
  =========                 |
  \\      /  F ield         | OpenFOAM: The Open Source CFD Toolbox
   \\    /   O peration     | Website:  https://openfoam.org
    \\  /    A nd           | Version:  7
     \\/     M anipulation  |
\*---------------------------------------------------------------------------*/
FoamFile
{
    version     2.0;
    format      ascii;
    class       volScalarField;
    location    "1.4";
    object      T;
}
// * * * * * * * * * * * * * * * * * * * * * * * * * * * * * * * * * * * * * //

dimensions      [0 0 0 1 0 0 0];

internalField   nonuniform List<scalar> 
64512
(
1
1
1
1
1
1
1
1
1
1
1
1
1
1
1
1
1
1
1
1
1
1
1
1
1
1
1
1
1
1
1
1
1
1
1
1
1
1
1
1
1
1
1
1
1
1
1
1
1
1
1
1.30136
2.48335
2.69833
2.71118
2.72434
2.73416
2.74114
2.74578
2.74895
2.75111
2.75279
2.75467
2.75767
2.76312
2.7719
2.78313
2.79386
2.80057
2.80264
2.80156
2.79816
2.79451
2.79366
2.7961
2.80267
2.81147
2.8188
2.82396
2.82712
2.82927
2.83116
2.83353
2.83685
2.84042
2.84369
2.847
2.85096
2.85566
2.86179
2.87097
2.88724
2.91354
2.94445
2.96753
2.97596
1
1
1
1
1
1
1
1
1
1
1
1
1
1
1
1
1
1
1
1
1
1
1
1
1
1
1
1
1
1
1
1
1
1
1
1
1
1
1
1
1
1
1
1
1
1
1
1
1
1
1
1.29309
2.47932
2.698
2.71218
2.72465
2.73416
2.74106
2.74569
2.74884
2.751
2.75269
2.75453
2.75752
2.76302
2.7719
2.7832
2.79393
2.80058
2.80255
2.80144
2.79804
2.79443
2.79363
2.79606
2.80248
2.8112
2.81857
2.82387
2.82699
2.82908
2.83091
2.83329
2.83666
2.84034
2.8437
2.84706
2.85096
2.85555
2.86156
2.87068
2.88707
2.91345
2.94436
2.96737
2.97575
1
1
1
1
1
1
1
1
1
1
1
1
1
1
1
1
1
1
1
1
1
1
1
1
1
1
1
1
1
1
1
1
1
1
1
1
1
1
1
1
1
1
1
1
1
1
1
1
1
1
1
1.2759
2.47157
2.69825
2.71272
2.72453
2.73401
2.74111
2.7459
2.74903
2.75113
2.75271
2.7544
2.75724
2.76275
2.77179
2.7832
2.79398
2.80052
2.8023
2.80108
2.79758
2.79401
2.7934
2.79594
2.80231
2.81096
2.81834
2.82372
2.82665
2.82858
2.83036
2.83283
2.83637
2.84027
2.8438
2.84722
2.85094
2.85539
2.86127
2.87036
2.88697
2.91348
2.94436
2.96724
2.97552
1
1
1
1
1
1
1
1
1
1
1
1
1
1
1
1
1
1
1
1
1
1
1
1
1
1
1
1
1
1
1
1
1
1
1
1
1
1
1
1
1
1
1
1
1
1
1
1
1
1
1
1.25436
2.46085
2.69641
2.71207
2.72404
2.73393
2.74148
2.74651
2.7496
2.7515
2.75283
2.7542
2.75675
2.7622
2.77139
2.78298
2.79384
2.80028
2.80183
2.80043
2.79676
2.79322
2.79285
2.7956
2.80203
2.8107
2.81813
2.82358
2.82622
2.82785
2.82951
2.83206
2.83582
2.84002
2.84385
2.84739
2.85089
2.85517
2.86088
2.86992
2.88678
2.91346
2.94437
2.96716
2.97539
1
1
1
1
1
1
1
1
1
1
1
1
1
1
1
1
1
1
1
1
1
1
1
1
1
1
1
1
1
1
1
1
1
1
1
1
1
1
1
1
1
1
1
1
1
1
1
1
1
1
1
1.2294
2.44591
2.69101
2.70969
2.7233
2.73408
2.74219
2.74742
2.75037
2.75204
2.75303
2.75398
2.75614
2.76147
2.77081
2.78259
2.79357
2.79989
2.80113
2.79951
2.79562
2.79208
2.79188
2.79494
2.80163
2.81048
2.81801
2.82348
2.82569
2.82691
2.82835
2.83095
2.83495
2.83952
2.84376
2.84747
2.85088
2.85488
2.86032
2.86945
2.88649
2.91336
2.94436
2.96714
2.97536
1
1
1
1
1
1
1
1
1
1
1
1
1
1
1
1
1
1
1
1
1
1
1
1
1
1
1
1
1
1
1
1
1
1
1
1
1
1
1
1
1
1
1
1
1
1
1
1
1
1
1
1.19479
2.42081
2.68493
2.70832
2.72316
2.7345
2.74303
2.74823
2.75104
2.75253
2.75325
2.75376
2.75549
2.76069
2.77018
2.78212
2.79299
2.799
2.79992
2.79813
2.79412
2.79061
2.7905
2.79391
2.80106
2.81026
2.81797
2.82337
2.82511
2.82585
2.82698
2.82952
2.8337
2.83866
2.84337
2.84731
2.85076
2.85449
2.85962
2.86883
2.88603
2.91311
2.94429
2.96713
2.97541
1
1
1
1
1
1
1
1
1
1
1
1
1
1
1
1
1
1
1
1
1
1
1
1
1
1
1
1
1
1
1
1
1
1
1
1
1
1
1
1
1
1
1
1
1
1
1
1
1
1
1
1.14347
2.38212
2.68115
2.70887
2.72427
2.73595
2.74427
2.74898
2.75146
2.75265
2.75304
2.75326
2.75488
2.76017
2.7697
2.7815
2.79194
2.79749
2.79815
2.79629
2.7923
2.78893
2.78889
2.79266
2.80027
2.80992
2.81794
2.82307
2.82442
2.82469
2.82546
2.82784
2.83211
2.83743
2.84259
2.8468
2.85037
2.85394
2.85881
2.86802
2.88537
2.9127
2.94413
2.96712
2.97548
1
1
1
1
1
1
1
1
1
1
1
1
1
1
1
1
1
1
1
1
1
1
1
1
1
1
1
1
1
1
1
1
1
1
1
1
1
1
1
1
1
1
1
1
1
1
1
1
1
1
1
1.05984
2.33067
2.68269
2.7107
2.726
2.73763
2.74516
2.74934
2.75157
2.75246
2.75254
2.7527
2.75455
2.76003
2.76943
2.78068
2.79036
2.79531
2.79571
2.79388
2.79013
2.78706
2.78717
2.79131
2.79937
2.8094
2.8177
2.82253
2.82357
2.82347
2.8239
2.82605
2.83033
2.83591
2.84142
2.84588
2.84959
2.85312
2.85785
2.86702
2.88452
2.91212
2.94384
2.96701
2.97547
1
1
1
1
1
1
1
1
1
1
1
1
1
1
1
1
1
1
1
1
1
1
1
1
1
1
1
1
1
1
1
1
1
1
1
1
1
1
1
1
1
1
1
1
1
1
1
1
1
1
1
1.00193
2.27947
2.68342
2.71263
2.72779
2.73876
2.74566
2.74958
2.75144
2.75187
2.75187
2.75225
2.75456
2.76024
2.76935
2.77977
2.78845
2.79262
2.79272
2.79097
2.78763
2.78505
2.78542
2.78998
2.79846
2.80873
2.81714
2.82163
2.82242
2.82216
2.82237
2.82427
2.82846
2.83416
2.83988
2.84451
2.84835
2.85195
2.85665
2.86583
2.88346
2.91134
2.94335
2.96672
2.97531
1
1
1
1
1
1
1
1
1
1
1
1
1
1
1
1
1
1
1
1
1
1
1
1
1
1
1
1
1
1
1
1
1
1
1
1
1
1
1
1
1
1
1
1
1
1
1
1
1
1
1
1.00001
2.22101
2.68274
2.71555
2.72915
2.73906
2.74538
2.74916
2.75082
2.75125
2.75151
2.75229
2.75498
2.76061
2.76917
2.77854
2.78612
2.78955
2.78939
2.78771
2.78487
2.78286
2.78364
2.78866
2.79757
2.80793
2.8163
2.82041
2.821
2.82066
2.82078
2.82252
2.82662
2.83231
2.83809
2.84278
2.84669
2.85041
2.85521
2.86442
2.88216
2.91028
2.94258
2.96615
2.97487
1
1
1
1
1
1
1
1
1
1
1
1
1
1
1
1
1
1
1
1
1
1
1
1
1
1
1
1
1
1
1
1
1
1
1
1
1
1
1
1
1
1
1
1
1
1
1
1
1
1
1
1
2.15787
2.68016
2.71553
2.72828
2.73826
2.74453
2.74839
2.75015
2.75092
2.75155
2.75271
2.75543
2.76065
2.76837
2.77665
2.78335
2.78624
2.786
2.78449
2.7821
2.78059
2.78179
2.78734
2.79663
2.80702
2.81524
2.81894
2.81931
2.81894
2.81903
2.82072
2.82476
2.83037
2.83608
2.84072
2.84464
2.8485
2.85349
2.86274
2.88057
2.90891
2.94151
2.96534
2.97421
1
1
1
1
1
1
1
1
1
1
1
1
1
1
1
1
1
1
1
1
1
1
1
1
1
1
1
1
1
1
1
1
1
1
1
1
1
1
1
1
1
1
1
1
1
1
1
1
1
1
1
1
2.08848
2.67405
2.71298
2.72588
2.73654
2.74322
2.74745
2.74955
2.75082
2.7518
2.75318
2.75558
2.76004
2.76662
2.77392
2.78008
2.7828
2.78279
2.78162
2.77957
2.77838
2.77993
2.78594
2.79552
2.80588
2.81392
2.81723
2.81735
2.81696
2.81706
2.81878
2.82281
2.82833
2.83393
2.83845
2.84232
2.84632
2.85149
2.86078
2.87864
2.90715
2.94007
2.9642
2.97322
1
1
1
1
1
1
1
1
1
1
1
1
1
1
1
1
1
1
1
1
1
1
1
1
1
1
1
1
1
1
1
1
1
1
1
1
1
1
1
1
1
1
1
1
1
1
1
1
1
1
1
1
2.0101
2.66333
2.70833
2.72258
2.73438
2.74164
2.74642
2.74911
2.75081
2.75185
2.75308
2.75495
2.75838
2.76382
2.77032
2.77622
2.77927
2.77993
2.7792
2.77752
2.77655
2.7783
2.78454
2.79421
2.80442
2.81228
2.81526
2.81518
2.81472
2.81483
2.81659
2.82066
2.82614
2.83163
2.83603
2.83981
2.84386
2.84917
2.85846
2.87633
2.905
2.93823
2.96271
2.9719
1
1
1
1
1
1
1
1
1
1
1
1
1
1
1
1
1
1
1
1
1
1
1
1
1
1
1
1
1
1
1
1
1
1
1
1
1
1
1
1
1
1
1
1
1
1
1
1
1
1
1
1
1.91899
2.64795
2.70363
2.71943
2.73192
2.73953
2.74472
2.74795
2.74997
2.75098
2.75185
2.75317
2.75574
2.76015
2.76596
2.77178
2.77564
2.77735
2.77725
2.77611
2.77533
2.77714
2.78326
2.7927
2.80257
2.81022
2.81295
2.81277
2.81223
2.81233
2.81413
2.81829
2.82379
2.8292
2.83348
2.83713
2.84115
2.8465
2.85578
2.87365
2.90246
2.93602
2.96086
2.9702
1
1
1
1
1
1
1
1
1
1
1
1
1
1
1
1
1
1
1
1
1
1
1
1
1
1
1
1
1
1
1
1
1
1
1
1
1
1
1
1
1
1
1
1
1
1
1
1
1
1
1
1
1.81494
2.62805
2.69973
2.71634
2.72873
2.73621
2.74139
2.74498
2.74714
2.74834
2.74912
2.75021
2.75227
2.75583
2.76109
2.76694
2.77188
2.77486
2.77572
2.77507
2.77457
2.77634
2.78206
2.79097
2.8003
2.80769
2.81022
2.81005
2.80949
2.80956
2.81141
2.81567
2.82125
2.82659
2.83077
2.83427
2.83816
2.84345
2.85271
2.87059
2.89954
2.93342
2.95858
2.96805
1
1
1
1
1
1
1
1
1
1
1
1
1
1
1
1
1
1
1
1
1
1
1
1
1
1
1
1
1
1
1
1
1
1
1
1
1
1
1
1
1
1
1
1
1
1
1
1
1
1
1
1
1.698
2.60104
2.69701
2.71309
2.72453
2.73123
2.73611
2.73988
2.74247
2.74408
2.74519
2.74642
2.74828
2.75129
2.75618
2.76209
2.76798
2.77227
2.77414
2.77403
2.7739
2.77562
2.78088
2.7891
2.79777
2.80476
2.80708
2.80691
2.80636
2.80644
2.80835
2.81275
2.81845
2.8238
2.82793
2.83125
2.83489
2.84001
2.84921
2.86712
2.89623
2.93042
2.95584
2.96536
1
1
1
1
1
1
1
1
1
1
1
1
1
1
1
1
1
1
1
1
1
1
1
1
1
1
1
1
1
1
1
1
1
1
1
1
1
1
1
1
1
1
1
1
1
1
1
1
1
1
1
1
1.5643
2.56048
2.69381
2.70746
2.71851
2.7249
2.72984
2.73378
2.73675
2.73895
2.7406
2.74216
2.74403
2.74695
2.75176
2.75789
2.76451
2.7698
2.77248
2.77294
2.77309
2.77476
2.77949
2.7869
2.79485
2.80132
2.80344
2.80329
2.80283
2.80299
2.80503
2.80957
2.8154
2.82078
2.82486
2.82799
2.83131
2.83615
2.84526
2.8632
2.89249
2.92698
2.95262
2.96215
1
1
1
1
1
1
1
1
1
1
1
1
1
1
1
1
1
1
1
1
1
1
1
1
1
1
1
1
1
1
1
1
1
1
1
1
1
1
1
1
1
1
1
1
1
1
1
1
1
1
1
1
1.40551
2.5011
2.69003
2.69984
2.71042
2.71745
2.72309
2.72748
2.73094
2.7337
2.73586
2.73785
2.74005
2.74341
2.74858
2.75503
2.76193
2.76756
2.77057
2.77137
2.77173
2.77339
2.77774
2.78441
2.79175
2.79772
2.79964
2.79944
2.79898
2.79918
2.80131
2.80601
2.81199
2.81748
2.82155
2.82451
2.82749
2.83199
2.84093
2.85884
2.88824
2.92299
2.94884
2.95836
1
1
1
1
1
1
1
1
1
1
1
1
1
1
1
1
1
1
1
1
1
1
1
1
1
1
1
1
1
1
1
1
1
1
1
1
1
1
1
1
1
1
1
1
1
1
1
1
1
1
1
1
1.23482
2.43027
2.68836
2.69245
2.70289
2.71157
2.71845
2.72332
2.7269
2.72974
2.73189
2.73395
2.73646
2.74054
2.74633
2.75319
2.76025
2.76589
2.76893
2.76981
2.77022
2.77175
2.77575
2.78168
2.78836
2.79365
2.79536
2.79509
2.79465
2.79492
2.7972
2.80207
2.80824
2.81384
2.81789
2.82072
2.82337
2.8275
2.83617
2.85393
2.88336
2.91836
2.94446
2.95403
1
1
1
1
1
1
1
1
1
1
1
1
1
1
1
1
1
1
1
1
1
1
1
1
1
1
1
1
1
1
1
1
1
1
1
1
1
1
1
1
1
1
1
1
1
1
1
1
1
1
1
1
1.08389
2.35806
2.68367
2.68983
2.7002
2.7092
2.71637
2.72116
2.72438
2.72674
2.7287
2.73088
2.73408
2.73928
2.74591
2.75299
2.75961
2.76456
2.76692
2.76743
2.76768
2.76912
2.77299
2.77829
2.78445
2.78922
2.79084
2.79052
2.79008
2.79038
2.79276
2.79778
2.80407
2.80977
2.81385
2.81657
2.81893
2.82271
2.83104
2.84849
2.87778
2.91295
2.93934
2.94901
1
1
1
1
1
1
1
1
1
1
1
1
1
1
1
1
1
1
1
1
1
1
1
1
1
1
1
1
1
1
1
1
1
1
1
1
1
1
1
1
1
1
1
1
1
1
1
1
1
1
1
1
1.0028
2.26577
2.67867
2.69366
2.70345
2.71186
2.71816
2.72216
2.72437
2.72548
2.7266
2.72844
2.73206
2.73796
2.74508
2.7523
2.75864
2.7631
2.76483
2.76494
2.76492
2.76618
2.76968
2.77438
2.78001
2.78437
2.78608
2.78575
2.78528
2.78559
2.78801
2.79308
2.79944
2.80522
2.80934
2.81195
2.81408
2.81751
2.82545
2.84246
2.87146
2.90674
2.9335
2.94335
1
1
1
1
1
1
1
1
1
1
1
1
1
1
1
1
1
1
1
1
1
1
1
1
1
1
1
1
1
1
1
1
1
1
1
1
1
1
1
1
1
1
1
1
1
1
1
1
1
1
1
1
1.00001
2.14574
2.66939
2.69673
2.70685
2.71494
2.71999
2.72277
2.72396
2.72424
2.72476
2.72634
2.7303
2.73669
2.74418
2.75145
2.75751
2.76148
2.76259
2.76229
2.76194
2.76276
2.76555
2.76976
2.77485
2.77899
2.78102
2.78076
2.78029
2.78059
2.78298
2.78801
2.79438
2.80023
2.80438
2.80688
2.80881
2.81193
2.81943
2.83587
2.86439
2.89963
2.9267
2.93672
1
1
1
1
1
1
1
1
1
1
1
1
1
1
1
1
1
1
1
1
1
1
1
1
1
1
1
1
1
1
1
1
1
1
1
1
1
1
1
1
1
1
1
1
1
1
1
1
1
1
1
1
1
1.99569
2.64627
2.69556
2.70774
2.7163
2.72102
2.72297
2.72341
2.72309
2.72302
2.72414
2.72807
2.73459
2.74222
2.74952
2.75542
2.75911
2.75995
2.75946
2.75882
2.75903
2.76077
2.76439
2.76887
2.77296
2.77547
2.7755
2.7751
2.77539
2.7777
2.78255
2.78892
2.79479
2.79889
2.80122
2.80292
2.80571
2.81272
2.82851
2.85647
2.8916
2.91898
2.92921
1
1
1
1
1
1
1
1
1
1
1
1
1
1
1
1
1
1
1
1
1
1
1
1
1
1
1
1
1
1
1
1
1
1
1
1
1
1
1
1
1
1
1
1
1
1
1
1
1
1
1
1
1
1.82501
2.60605
2.68727
2.70284
2.71258
2.7173
2.71925
2.71969
2.71951
2.71952
2.72063
2.7244
2.73068
2.73815
2.74539
2.7514
2.75524
2.75644
2.75618
2.75548
2.75503
2.7557
2.75835
2.76214
2.76628
2.76927
2.76991
2.76962
2.76997
2.77219
2.77673
2.78304
2.78887
2.79286
2.79498
2.79643
2.79889
2.80536
2.82039
2.84761
2.88244
2.90999
2.9203
1
1
1
1
1
1
1
1
1
1
1
1
1
1
1
1
1
1
1
1
1
1
1
1
1
1
1
1
1
1
1
1
1
1
1
1
1
1
1
1
1
1
1
1
1
1
1
1
1
1
1
1
1
1.60679
2.53119
2.67386
2.69254
2.70334
2.70866
2.71136
2.71296
2.71415
2.71515
2.71653
2.71973
2.72507
2.73182
2.73877
2.74494
2.74929
2.75141
2.75193
2.75144
2.7507
2.75062
2.75211
2.75502
2.75903
2.76236
2.76375
2.76379
2.76433
2.7664
2.77061
2.77671
2.78241
2.78619
2.78801
2.78908
2.79107
2.79687
2.81102
2.83743
2.87198
2.89975
2.91019
1
1
1
1
1
1
1
1
1
1
1
1
1
1
1
1
1
1
1
1
1
1
1
1
1
1
1
1
1
1
1
1
1
1
1
1
1
1
1
1
1
1
1
1
1
1
1
1
1
1
1
1
1
1.33201
2.44278
2.6691
2.67326
2.68482
2.69347
2.69921
2.70334
2.70665
2.70921
2.71144
2.71448
2.71881
2.72442
2.73062
2.73664
2.74149
2.74472
2.74637
2.74657
2.74599
2.74549
2.74613
2.74802
2.75155
2.75497
2.75707
2.75761
2.75838
2.76022
2.76416
2.76992
2.77533
2.77877
2.78021
2.78085
2.78233
2.7874
2.80055
2.8259
2.85985
2.88759
2.89792
1
1
1
1
1
1
1
1
1
1
1
1
1
1
1
1
1
1
1
1
1
1
1
1
1
1
1
1
1
1
1
1
1
1
1
1
1
1
1
1
1
1
1
1
1
1
1
1
1
1
1
1
1
1.07616
2.35283
2.67048
2.66989
2.67681
2.68457
2.69075
2.69572
2.69992
2.70323
2.70613
2.7091
2.71252
2.71677
2.72179
2.72723
2.73229
2.73641
2.73924
2.74051
2.74036
2.74007
2.7403
2.74135
2.74422
2.74755
2.74994
2.75099
2.75197
2.75361
2.75728
2.76261
2.76758
2.77054
2.77149
2.77156
2.77229
2.77625
2.78799
2.81203
2.84541
2.87333
2.88386
1
1
1
1
1
1
1
1
1
1
1
1
1
1
1
1
1
1
1
1
1
1
1
1
1
1
1
1
1
1
1
1
1
1
1
1
1
1
1
1
1
1
1
1
1
1
1
1
1
1
1
1
1
1.00161
2.24732
2.66256
2.66514
2.67191
2.67932
2.68563
2.69061
2.69472
2.69823
2.7016
2.70483
2.70778
2.71105
2.71491
2.7194
2.72408
2.72835
2.73164
2.73364
2.73408
2.73414
2.73436
2.73493
2.73726
2.74032
2.7427
2.7441
2.74515
2.74662
2.74995
2.75476
2.75913
2.76137
2.76163
2.76109
2.76099
2.7637
2.77388
2.79626
2.82843
2.8558
2.86572
1
1
1
1
1
1
1
1
1
1
1
1
1
1
1
1
1
1
1
1
1
1
1
1
1
1
1
1
1
1
1
1
1
1
1
1
1
1
1
1
1
1
1
1
1
1
1
1
1
1
1
1
1
1
2.08788
2.6574
2.66941
2.67774
2.68329
2.68753
2.69115
2.69418
2.69684
2.69932
2.70167
2.70361
2.70585
2.70883
2.71271
2.71704
2.72119
2.7245
2.72677
2.72752
2.72791
2.72831
2.72876
2.73077
2.73356
2.7358
2.73709
2.73796
2.73922
2.74214
2.74631
2.74987
2.75124
2.75076
2.74929
2.74817
2.74934
2.75679
2.77622
2.80659
2.83354
2.84404
1
1
1
1
1
1
1
1
1
1
1
1
1
1
1
1
1
1
1
1
1
1
1
1
1
1
1
1
1
1
1
1
1
1
1
1
1
1
1
1
1
1
1
1
1
1
1
1
1
1
1
1
1
1
1.87573
2.61413
2.66982
2.68064
2.68698
2.69054
2.69252
2.69445
2.6964
2.69825
2.69997
2.70128
2.70278
2.70499
2.70809
2.71175
2.71544
2.71852
2.72072
2.72153
2.72204
2.72252
2.72302
2.72478
2.72722
2.7291
2.73009
2.73066
2.73162
2.73398
2.73729
2.73979
2.7402
2.7389
2.73616
2.73348
2.73285
2.73746
2.75353
2.7813
2.80523
2.81134
1
1
1
1
1
1
1
1
1
1
1
1
1
1
1
1
1
1
1
1
1
1
1
1
1
1
1
1
1
1
1
1
1
1
1
1
1
1
1
1
1
1
1
1
1
1
1
1
1
1
1
1
1
1
1.59379
2.5146
2.6623
2.67468
2.68231
2.68726
2.6904
2.69288
2.69477
2.69649
2.69809
2.69912
2.7001
2.7017
2.70419
2.70739
2.71087
2.71386
2.7158
2.71637
2.71673
2.71711
2.71772
2.7193
2.72132
2.72268
2.72321
2.72336
2.72383
2.72537
2.72757
2.72896
2.72845
2.72602
2.72173
2.71691
2.71393
2.71506
2.72456
2.74444
2.76249
2.7655
1
1
1
1
1
1
1
1
1
1
1
1
1
1
1
1
1
1
1
1
1
1
1
1
1
1
1
1
1
1
1
1
1
1
1
1
1
1
1
1
1
1
1
1
1
1
1
1
1
1
1
1
1
1
1.24065
2.3958
2.65316
2.65568
2.66605
2.67647
2.68357
2.68763
2.69037
2.69269
2.69472
2.69589
2.69663
2.69781
2.69988
2.70291
2.70653
2.70975
2.71157
2.71197
2.71204
2.71214
2.71277
2.71414
2.71562
2.71634
2.7163
2.71593
2.71574
2.71623
2.71716
2.71739
2.71606
2.71228
2.7062
2.69881
2.69185
2.68806
2.69053
2.70159
2.71429
2.72124
1
1
1
1
1
1
1
1
1
1
1
1
1
1
1
1
1
1
1
1
1
1
1
1
1
1
1
1
1
1
1
1
1
1
1
1
1
1
1
1
1
1
1
1
1
1
1
1
1
1
1
1
1
1
1.01467
2.29421
2.64442
2.64373
2.65361
2.66456
2.67313
2.67834
2.68229
2.6858
2.68897
2.69093
2.69189
2.69288
2.69463
2.69762
2.70159
2.70523
2.70723
2.7076
2.7073
2.7072
2.70776
2.70891
2.70983
2.70999
2.70945
2.70838
2.70735
2.70668
2.70622
2.70529
2.7028
2.69766
2.68968
2.67952
2.66832
2.65817
2.64979
2.63884
2.60081
2.47469
1
1
1
1
1
1
1
1
1
1
1
1
1
1
1
1
1
1
1
1
1
1
1
1
1
1
1
1
1
1
1
1
1
1
1
1
1
1
1
1
1
1
1
1
1
1
1
1
1
1
1
1
1
1
1.00005
2.12565
2.62919
2.64515
2.65388
2.65985
2.66478
2.66888
2.67289
2.67719
2.6814
2.68418
2.68548
2.68638
2.68793
2.69098
2.69537
2.6996
2.70208
2.70257
2.70219
2.70203
2.70252
2.70341
2.70383
2.70359
2.70244
2.7006
2.69858
2.69664
2.69475
2.69249
2.68875
2.68226
2.6724
2.65933
2.64358
2.62536
2.60325
2.56883
2.50601
2.31249
1
1
1
1
1
1
1
1
1
1
1
1
1
1
1
1
1
1
1
1
1
1
1
1
1
1
1
1
1
1
1
1
1
1
1
1
1
1
1
1
1
1
1
1
1
1
1
1
1
1
1
1
1
1
1
1.89811
2.60142
2.64673
2.65345
2.65787
2.66097
2.66348
2.6665
2.67023
2.6743
2.6772
2.67855
2.67917
2.68038
2.68324
2.68774
2.69244
2.69539
2.69626
2.69596
2.69586
2.69631
2.69708
2.69724
2.69676
2.69519
2.6926
2.68952
2.68626
2.68289
2.67916
2.67408
2.66623
2.65453
2.63865
2.61838
2.59336
2.55915
2.51545
2.4113
2.21446
1
1
1
1
1
1
1
1
1
1
1
1
1
1
1
1
1
1
1
1
1
1
1
1
1
1
1
1
1
1
1
1
1
1
1
1
1
1
1
1
1
1
1
1
1
1
1
1
1
1
1
1
1
1
1
1.56629
2.50177
2.64181
2.6477
2.65256
2.65609
2.65934
2.66228
2.66537
2.66876
2.67108
2.67201
2.67226
2.6729
2.6751
2.67918
2.68387
2.68721
2.68852
2.68842
2.68841
2.68887
2.6896
2.68973
2.68913
2.68734
2.68417
2.6801
2.67556
2.67075
2.6655
2.65896
2.64973
2.63629
2.61803
2.59392
2.56337
2.52124
2.46189
2.34851
2.17541
1
1
1
1
1
1
1
1
1
1
1
1
1
1
1
1
1
1
1
1
1
1
1
1
1
1
1
1
1
1
1
1
1
1
1
1
1
1
1
1
1
1
1
1
1
1
1
1
1
1
1
1
1
1
1
1.15409
2.36465
2.63685
2.63718
2.64199
2.64851
2.65432
2.65814
2.66131
2.66427
2.66599
2.66642
2.66632
2.66643
2.6676
2.67063
2.67467
2.67797
2.67951
2.67967
2.6797
2.6801
2.6808
2.68099
2.68035
2.67846
2.67495
2.67015
2.66454
2.65838
2.65163
2.64359
2.63301
2.61809
2.59784
2.57094
2.53562
2.48853
2.41991
2.31406
2.17729
1
1
1
1
1
1
1
1
1
1
1
1
1
1
1
1
1
1
1
1
1
1
1
1
1
1
1
1
1
1
1
1
1
1
1
1
1
1
1
1
1
1
1
1
1
1
1
1
1
1
1
1
1
1
1
1.00544
2.23079
2.61183
2.62112
2.63199
2.64062
2.64794
2.65282
2.65656
2.65954
2.66091
2.66104
2.6608
2.66065
2.66099
2.6628
2.66579
2.66866
2.67015
2.6704
2.67026
2.67039
2.67087
2.67097
2.67026
2.66824
2.66458
2.65941
2.6531
2.64584
2.63771
2.62817
2.61623
2.6001
2.57835
2.5496
2.51147
2.4614
2.39041
2.29597
2.18325
1
1
1
1
1
1
1
1
1
1
1
1
1
1
1
1
1
1
1
1
1
1
1
1
1
1
1
1
1
1
1
1
1
1
1
1
1
1
1
1
1
1
1
1
1
1
1
1
1
1
1
1
1
1
1
1
2.00175
2.58587
2.61852
2.6293
2.63738
2.64284
2.64711
2.65086
2.65398
2.65543
2.65552
2.65532
2.65507
2.65504
2.65589
2.65778
2.65998
2.66118
2.66128
2.66085
2.66045
2.66045
2.6602
2.65916
2.65684
2.65302
2.64771
2.64104
2.633
2.62368
2.61278
2.59956
2.58246
2.55982
2.53017
2.49069
2.43947
2.37131
2.29016
2.19196
1
1
1
1
1
1
1
1
1
1
1
1
1
1
1
1
1
1
1
1
1
1
1
1
1
1
1
1
1
1
1
1
1
1
1
1
1
1
1
1
1
1
1
1
1
1
1
1
1
1
1
1
1
1
1
0.999999
1.6417
2.50334
2.61475
2.62578
2.63254
2.63689
2.64081
2.64443
2.64755
2.64915
2.6494
2.6492
2.64894
2.64877
2.64918
2.65038
2.65207
2.65305
2.65299
2.65229
2.65123
2.65031
2.64923
2.64748
2.64464
2.64058
2.63521
2.62842
2.61992
2.60972
2.59763
2.5832
2.56526
2.54216
2.51239
2.47293
2.42289
2.35935
2.28721
2.20036
1
1
1
1
1
1
1
1
1
1
1
1
1
1
1
1
1
1
1
1
1
1
1
1
1
1
1
1
1
1
1
1
1
1
1
1
1
1
1
1
1
1
1
1
1
1
1
1
1
1
1
1
1
1
1
1
1.18513
2.36617
2.61626
2.61745
2.62284
2.62853
2.63314
2.63718
2.64055
2.64245
2.64281
2.64262
2.64228
2.64194
2.6421
2.64294
2.64438
2.64545
2.6454
2.64455
2.64288
2.64087
2.63864
2.63597
2.63247
2.62801
2.6224
2.61546
2.60672
2.59592
2.5829
2.56741
2.54875
2.52544
2.49605
2.45822
2.4097
2.35114
2.28747
2.20973
1
1
1
1
1
1
1
1
1
1
1
1
1
1
1
1
1
1
1
1
1
1
1
1
1
1
1
1
1
1
1
1
1
1
1
1
1
1
1
1
1
1
1
1
1
1
1
1
1
1
1
1
1
1
1
1
1.00792
2.22733
2.59445
2.60368
2.61176
2.61866
2.62441
2.62926
2.63303
2.63531
2.63593
2.63575
2.63523
2.63467
2.63459
2.6352
2.63661
2.63803
2.63827
2.63743
2.63534
2.6323
2.62885
2.62514
2.6209
2.61592
2.60991
2.60266
2.5937
2.58253
2.56885
2.55249
2.53312
2.50968
2.48127
2.4448
2.39883
2.34669
2.28895
2.2189
1
1
1
1
1
1
1
1
1
1
1
1
1
1
1
1
1
1
1
1
1
1
1
1
1
1
1
1
1
1
1
1
1
1
1
1
1
1
1
1
1
1
1
1
1
1
1
1
1
1
1
1
1
1
1
1
1
1.96753
2.56271
2.59578
2.60575
2.61265
2.61806
2.6225
2.62607
2.62835
2.6291
2.62894
2.62834
2.62751
2.62706
2.62738
2.6286
2.63032
2.63096
2.63025
2.628
2.6243
2.61986
2.61523
2.6103
2.60477
2.59829
2.59054
2.58119
2.56968
2.55558
2.53865
2.51869
2.49516
2.46768
2.43268
2.39076
2.34438
2.29024
2.22759
1
1
1
1
1
1
1
1
1
1
1
1
1
1
1
1
1
1
1
1
1
1
1
1
1
1
1
1
1
1
1
1
1
1
1
1
1
1
1
1
1
1
1
1
1
1
1
1
1
1
1
1
1
1
1
1
0.999998
1.54976
2.46281
2.5935
2.5994
2.60536
2.6113
2.61567
2.619
2.62108
2.62188
2.62178
2.62122
2.62022
2.6195
2.61962
2.62065
2.62249
2.62344
2.62282
2.62052
2.61651
2.61152
2.60622
2.60067
2.59464
2.58769
2.57941
2.56952
2.55759
2.5432
2.52601
2.50579
2.48206
2.45546
2.42241
2.38427
2.34185
2.29097
2.23607
1
1
1
1
1
1
1
1
1
1
1
1
1
1
1
1
1
1
1
1
1
1
1
1
1
1
1
1
1
1
1
1
1
1
1
1
1
1
1
1
1
1
1
1
1
1
1
1
1
1
1
1
1
1
1
1
1
1.08008
2.31028
2.59416
2.59224
2.59678
2.60287
2.60777
2.61121
2.61333
2.61428
2.61425
2.61376
2.61276
2.61194
2.61198
2.61281
2.61445
2.61544
2.61485
2.61258
2.60861
2.60349
2.59782
2.59181
2.58534
2.57801
2.56929
2.55885
2.54645
2.53182
2.5146
2.49446
2.47061
2.44486
2.41329
2.37824
2.33903
2.29214
2.24409
1
1
1
1
1
1
1
1
1
1
1
1
1
1
1
1
1
1
1
1
1
1
1
1
1
1
1
1
1
1
1
1
1
1
1
1
1
1
1
1
1
1
1
1
1
1
1
1
1
1
1
1
1
1
1
1
1
1.00143
2.1184
2.56039
2.5779
2.58938
2.59661
2.60019
2.60322
2.60533
2.60641
2.60639
2.60592
2.60499
2.60426
2.60437
2.60507
2.60634
2.60711
2.60647
2.6042
2.60037
2.59538
2.58959
2.58328
2.57649
2.56893
2.56002
2.54926
2.53645
2.52157
2.50437
2.48441
2.46094
2.43565
2.40489
2.3727
2.3362
2.29394
2.2508
1
1
1
1
1
1
1
1
1
1
1
1
1
1
1
1
1
1
1
1
1
1
1
1
1
1
1
1
1
1
1
1
1
1
1
1
1
1
1
1
1
1
1
1
1
1
1
1
1
1
1
1
1
1
1
1
1
0.999994
1.74898
2.49569
2.57724
2.5856
2.59036
2.59347
2.59591
2.59782
2.59903
2.59908
2.59851
2.5974
2.59647
2.59646
2.59689
2.59772
2.59816
2.59749
2.59533
2.59181
2.58708
2.5813
2.57473
2.56765
2.55995
2.55108
2.54036
2.52739
2.51233
2.49512
2.47541
2.45295
2.42748
2.39768
2.36823
2.3337
2.29565
2.25566
1
1
1
1
1
1
1
1
1
1
1
1
1
1
1
1
1
1
1
1
1
1
1
1
1
1
1
1
1
1
1
1
1
1
1
1
1
1
1
1
1
1
1
1
1
1
1
1
1
1
1
1
1
1
1
1
1
0.999999
1.23701
2.35869
2.57728
2.57624
2.57989
2.58456
2.58728
2.58943
2.59102
2.59149
2.59105
2.59005
2.58903
2.58854
2.58854
2.58879
2.58879
2.58805
2.58606
2.58289
2.57846
2.57272
2.56596
2.55861
2.55078
2.54208
2.53172
2.519
2.50394
2.48666
2.46723
2.44566
2.42013
2.39239
2.36463
2.33124
2.29671
2.25928
1
1
1
1
1
1
1
1
1
1
1
1
1
1
1
1
1
1
1
1
1
1
1
1
1
1
1
1
1
1
1
1
1
1
1
1
1
1
1
1
1
1
1
1
1
1
1
1
1
1
1
1
1
1
1
1
1
1
1.01267
2.20147
2.55336
2.56168
2.57053
2.57648
2.57878
2.58113
2.58291
2.58372
2.58348
2.58271
2.58166
2.58068
2.57997
2.57959
2.57915
2.57825
2.57649
2.57373
2.56962
2.564
2.55709
2.54944
2.54133
2.53268
2.52276
2.51066
2.49602
2.47868
2.45956
2.43853
2.41413
2.38878
2.36116
2.3293
2.29809
2.26336
1
1
1
1
1
1
1
1
1
1
1
1
1
1
1
1
1
1
1
1
1
1
1
1
1
1
1
1
1
1
1
1
1
1
1
1
1
1
1
1
1
1
1
1
1
1
1
1
1
1
1
1
1
1
1
1
1
1
1.00001
1.85262
2.50287
2.55327
2.56354
2.56875
2.57136
2.5736
2.57514
2.57604
2.57601
2.57551
2.57449
2.57311
2.57167
2.57056
2.56969
2.56862
2.56696
2.56445
2.56059
2.55515
2.54828
2.54041
2.53196
2.52315
2.51345
2.50203
2.48811
2.47099
2.45237
2.43165
2.40895
2.3852
2.35781
2.32921
2.3001
2.26749
1
1
1
1
1
1
1
1
1
1
1
1
1
1
1
1
1
1
1
1
1
1
1
1
1
1
1
1
1
1
1
1
1
1
1
1
1
1
1
1
1
1
1
1
1
1
1
1
1
1
1
1
1
1
1
1
1
1
0.999999
1.32605
2.38185
2.55544
2.55396
2.55771
2.56226
2.56507
2.56675
2.56794
2.56821
2.56781
2.56678
2.56519
2.56328
2.56169
2.56047
2.55922
2.55757
2.55522
2.55161
2.5465
2.53986
2.53191
2.5231
2.51385
2.50397
2.4929
2.47975
2.46346
2.44564
2.42519
2.40398
2.3814
2.35575
2.32981
2.30181
2.27109
1
1
1
1
1
1
1
1
1
1
1
1
1
1
1
1
1
1
1
1
1
1
1
1
1
1
1
1
1
1
1
1
1
1
1
1
1
1
1
1
1
1
1
1
1
1
1
1
1
1
1
1
1
1
1
1
1
1
1
1.02416
2.22126
2.53447
2.54065
2.54813
2.55363
2.55629
2.5584
2.55989
2.56028
2.55982
2.55867
2.55691
2.55479
2.55298
2.55155
2.55012
2.54839
2.5461
2.5427
2.53803
2.53181
2.52402
2.51497
2.5052
2.49484
2.48366
2.47098
2.45587
2.43891
2.41903
2.39911
2.37775
2.35437
2.32962
2.30234
2.27415
1
1
1
1
1
1
1
1
1
1
1
1
1
1
1
1
1
1
1
1
1
1
1
1
1
1
1
1
1
1
1
1
1
1
1
1
1
1
1
1
1
1
1
1
1
1
1
1
1
1
1
1
1
1
1
1
1
1
1
1.00008
1.85756
2.48529
2.53307
2.54144
2.54565
2.5487
2.55094
2.55232
2.55247
2.55182
2.55044
2.54855
2.54637
2.54445
2.54277
2.54103
2.53912
2.53686
2.53376
2.52964
2.52399
2.51659
2.50755
2.49735
2.4863
2.47462
2.4621
2.448
2.43188
2.41329
2.39485
2.3745
2.35226
2.32811
2.30271
2.27718
1
1
1
1
1
1
1
1
1
1
1
1
1
1
1
1
1
1
1
1
1
1
1
1
1
1
1
1
1
1
1
1
1
1
1
1
1
1
1
1
1
1
1
1
1
1
1
1
1
1
1
1
1
1
1
1
1
1
1
1
1.2962
2.36173
2.53718
2.53266
2.53544
2.53965
2.5426
2.54413
2.54422
2.54355
2.54212
2.54022
2.53807
2.53604
2.53408
2.53202
2.5299
2.52758
2.52472
2.52107
2.51597
2.50908
2.50045
2.49003
2.47834
2.46609
2.45354
2.43998
2.42471
2.40802
2.39088
2.37094
2.34944
2.32633
2.30283
2.27888
1
1
1
1
1
1
1
1
1
1
1
1
1
1
1
1
1
1
1
1
1
1
1
1
1
1
1
1
1
1
1
1
1
1
1
1
1
1
1
1
1
1
1
1
1
1
1
1
1
1
1
1
1
1
1
1
1
1
1
1
1.01923
2.19208
2.51255
2.51734
2.52532
2.53169
2.53427
2.53567
2.53591
2.53546
2.5342
2.53239
2.53027
2.52811
2.52584
2.52336
2.52086
2.51832
2.51553
2.51218
2.50752
2.5012
2.49326
2.48291
2.47104
2.45842
2.44564
2.43229
2.41805
2.4031
2.38652
2.36728
2.34725
2.3252
2.30264
2.27899
1
1
1
1
1
1
1
1
1
1
1
1
1
1
1
1
1
1
1
1
1
1
1
1
1
1
1
1
1
1
1
1
1
1
1
1
1
1
1
1
1
1
1
1
1
1
1
1
1
1
1
1
1
1
1
1
1
1
1
1
1.00005
1.77147
2.4493
2.51178
2.52046
2.52468
2.52616
2.52725
2.52773
2.5275
2.52649
2.52478
2.52266
2.52036
2.51782
2.51504
2.51216
2.50928
2.50631
2.503
2.49854
2.49277
2.48538
2.4757
2.46417
2.45147
2.43847
2.42527
2.41181
2.39775
2.38156
2.36367
2.34506
2.32354
2.30127
2.27818
1
1
1
1
1
1
1
1
1
1
1
1
1
1
1
1
1
1
1
1
1
1
1
1
1
1
1
1
1
1
1
1
1
1
1
1
1
1
1
1
1
1
1
1
1
1
1
1
1
1
1
1
1
1
1
1
1
1
1
1
1
1.16144
2.30226
2.51632
2.51184
2.51384
2.51613
2.51756
2.51859
2.51882
2.51828
2.51688
2.51486
2.51251
2.50982
2.50684
2.50366
2.50047
2.49716
2.49363
2.48929
2.48393
2.47713
2.46834
2.45758
2.4452
2.43223
2.41905
2.40581
2.39218
2.37663
2.36009
2.34218
2.32107
2.29986
2.27813
1
1
1
1
1
1
1
1
1
1
1
1
1
1
1
1
1
1
1
1
1
1
1
1
1
1
1
1
1
1
1
1
1
1
1
1
1
1
1
1
1
1
1
1
1
1
1
1
1
1
1
1
1
1
1
1
1
1
1
1
1
1.00585
2.08384
2.48396
2.4931
2.50209
2.50656
2.50891
2.51037
2.51069
2.5103
2.50904
2.50709
2.5047
2.50188
2.49868
2.49518
2.49164
2.48794
2.48413
2.47981
2.47471
2.46839
2.46055
2.45079
2.43914
2.42652
2.41323
2.39997
2.38645
2.37139
2.35572
2.33808
2.31815
2.29897
2.27876
1
1
1
1
1
1
1
1
1
1
1
1
1
1
1
1
1
1
1
1
1
1
1
1
1
1
1
1
1
1
1
1
1
1
1
1
1
1
1
1
1
1
1
1
1
1
1
1
1
1
1
1
1
1
1
1
1
1
1
1
1
0.999992
1.57481
2.39748
2.49388
2.49407
2.49643
2.49941
2.5016
2.50215
2.50192
2.50094
2.4992
2.49683
2.49392
2.49058
2.4869
2.48312
2.47908
2.4749
2.47044
2.46545
2.45957
2.45256
2.44387
2.43326
2.42121
2.40788
2.39454
2.38087
2.36603
2.35071
2.33366
2.31594
2.29831
2.27911
1
1
1
1
1
1
1
1
1
1
1
1
1
1
1
1
1
1
1
1
1
1
1
1
1
1
1
1
1
1
1
1
1
1
1
1
1
1
1
1
1
1
1
1
1
1
1
1
1
1
1
1
1
1
1
1
1
1
1
1
1
0.999997
1.08024
2.23346
2.4891
2.48527
2.48766
2.49037
2.49245
2.4928
2.49264
2.49204
2.4908
2.48877
2.48596
2.48255
2.47873
2.47467
2.47035
2.4659
2.4613
2.45635
2.45077
2.44431
2.43646
2.42693
2.41562
2.4026
2.38934
2.37548
2.36059
2.34539
2.32957
2.31359
2.29681
2.27852
1
1
1
1
1
1
1
1
1
1
1
1
1
1
1
1
1
1
1
1
1
1
1
1
1
1
1
1
1
1
1
1
1
1
1
1
1
1
1
1
1
1
1
1
1
1
1
1
1
1
1
1
1
1
1
1
1
1
1
1
1
1
1.0012
1.87254
2.43377
2.47133
2.48094
2.48444
2.48547
2.48529
2.48493
2.48421
2.48296
2.48092
2.47813
2.47466
2.47076
2.46647
2.46198
2.45739
2.45274
2.44781
2.44241
2.43626
2.42898
2.42032
2.40981
2.39742
2.38445
2.37044
2.35544
2.34069
2.3261
2.31095
2.29475
2.27744
1
1
1
1
1
1
1
1
1
1
1
1
1
1
1
1
1
1
1
1
1
1
1
1
1
1
1
1
1
1
1
1
1
1
1
1
1
1
1
1
1
1
1
1
1
1
1
1
1
1
1
1
1
1
1
1
1
1
1
1
1
1
0.999998
1.23231
2.29528
2.47963
2.47439
2.47641
2.47786
2.47758
2.47694
2.476
2.47455
2.4725
2.46981
2.46641
2.46249
2.45805
2.45341
2.44874
2.44423
2.43952
2.43434
2.42836
2.42137
2.41326
2.40341
2.39186
2.37936
2.36548
2.35075
2.33652
2.3226
2.30787
2.29229
2.27608
1
1
1
1
1
1
1
1
1
1
1
1
1
1
1
1
1
1
1
1
1
1
1
1
1
1
1
1
1
1
1
1
1
1
1
1
1
1
1
1
1
1
1
1
1
1
1
1
1
1
1
1
1
1
1
1
1
1
1
1
1
1
1
1.01145
2.08147
2.44885
2.45591
2.46422
2.46865
2.46997
2.46917
2.46777
2.46596
2.46387
2.46133
2.45813
2.4543
2.44984
2.4451
2.4404
2.436
2.43149
2.42655
2.42069
2.41384
2.40601
2.39674
2.38608
2.37419
2.36074
2.34651
2.33274
2.31914
2.30472
2.28977
2.27462
1
1
1
1
1
1
1
1
1
1
1
1
1
1
1
1
1
1
1
1
1
1
1
1
1
1
1
1
1
1
1
1
1
1
1
1
1
1
1
1
1
1
1
1
1
1
1
1
1
1
1
1
1
1
1
1
1
1
1
1
1
1
1
1.00001
1.52935
2.35454
2.45794
2.45663
2.45837
2.46055
2.46011
2.45869
2.45676
2.45472
2.45241
2.44957
2.44604
2.44177
2.43705
2.43233
2.42788
2.42342
2.41862
2.41286
2.4061
2.39853
2.38985
2.38
2.3688
2.35604
2.34248
2.32908
2.31559
2.30148
2.28711
2.27275
1
1
1
1
1
1
1
1
1
1
1
1
1
1
1
1
1
1
1
1
1
1
1
1
1
1
1
1
1
1
1
1
1
1
1
1
1
1
1
1
1
1
1
1
1
1
1
1
1
1
1
1
1
1
1
1
1
1
1
1
1
1
1
0.999999
1.06598
2.18619
2.45097
2.44689
2.44838
2.45028
2.45012
2.44901
2.44732
2.44546
2.44338
2.44095
2.43791
2.4341
2.42964
2.42501
2.42039
2.41571
2.41074
2.40493
2.39825
2.39101
2.38298
2.37387
2.36339
2.35143
2.33859
2.3255
2.31212
2.29836
2.28448
2.27059
1
1
1
1
1
1
1
1
1
1
1
1
1
1
1
1
1
1
1
1
1
1
1
1
1
1
1
1
1
1
1
1
1
1
1
1
1
1
1
1
1
1
1
1
1
1
1
1
1
1
1
1
1
1
1
1
1
1
1
1
1
1
1
1
1.00077
1.74557
2.37819
2.4335
2.43967
2.44174
2.44098
2.44001
2.43864
2.43699
2.43508
2.43296
2.43037
2.42699
2.42282
2.41824
2.4134
2.40839
2.40304
2.39701
2.39036
2.38351
2.37613
2.36773
2.35796
2.34681
2.33462
2.32181
2.3086
2.29524
2.28174
2.26808
1
1
1
1
1
1
1
1
1
1
1
1
1
1
1
1
1
1
1
1
1
1
1
1
1
1
1
1
1
1
1
1
1
1
1
1
1
1
1
1
1
1
1
1
1
1
1
1
1
1
1
1
1
1
1
1
1
1
1
1
1
1
1
1
1
1.15109
2.2272
2.43832
2.43127
2.43132
2.43095
2.43037
2.4295
2.42815
2.42642
2.42463
2.42252
2.41966
2.41585
2.41139
2.40649
2.40126
2.39559
2.38927
2.38257
2.37602
2.36926
2.36157
2.35254
2.34212
2.33051
2.31802
2.3051
2.29215
2.27898
2.26549
1
1
1
1
1
1
1
1
1
1
1
1
1
1
1
1
1
1
1
1
1
1
1
1
1
1
1
1
1
1
1
1
1
1
1
1
1
1
1
1
1
1
1
1
1
1
1
1
1
1
1
1
1
1
1
1
1
1
1
1
1
1
1
1
1
1.00455
1.88914
2.38831
2.41188
2.41899
2.42108
2.42241
2.42182
2.42054
2.41888
2.41718
2.41521
2.41249
2.40878
2.40433
2.39941
2.39409
2.38827
2.38198
2.37545
2.36911
2.36263
2.35533
2.34681
2.337
2.32604
2.31407
2.30153
2.2889
2.276
2.26277
1
1
1
1
1
1
1
1
1
1
1
1
1
1
1
1
1
1
1
1
1
1
1
1
1
1
1
1
1
1
1
1
1