/*--------------------------------*- C++ -*----------------------------------*\
  =========                 |
  \\      /  F ield         | OpenFOAM: The Open Source CFD Toolbox
   \\    /   O peration     | Website:  https://openfoam.org
    \\  /    A nd           | Version:  7
     \\/     M anipulation  |
\*---------------------------------------------------------------------------*/
FoamFile
{
    version     2.0;
    format      ascii;
    class       volVectorField;
    location    "1.4";
    object      U;
}
// * * * * * * * * * * * * * * * * * * * * * * * * * * * * * * * * * * * * * //

dimensions      [0 1 -1 0 0 0 0];

internalField   nonuniform List<vector> 
64512
(
(3 1.07288e-16 0)
(3 7.96394e-17 0)
(3 -7.6872e-17 0)
(3 -7.95784e-17 0)
(3 -3.89586e-16 0)
(3 -7.5262e-16 0)
(3 -7.80879e-16 0)
(3 -8.59047e-16 0)
(3 -2.45824e-16 0)
(3 7.28422e-16 0)
(3 1.66006e-15 0)
(3 1.05786e-15 0)
(3 1.10281e-16 0)
(3 3.36706e-16 0)
(3 4.45878e-16 0)
(3 1.90424e-16 0)
(3 5.84388e-16 0)
(3 2.64852e-16 0)
(3 2.08648e-16 0)
(3 -3.43722e-17 0)
(3 1.58781e-16 0)
(3 3.09339e-16 0)
(3 4.78251e-17 0)
(3 -5.07581e-16 0)
(3 -8.23041e-16 0)
(3 -8.87544e-16 0)
(3 -7.52958e-16 0)
(3 -1.00047e-16 0)
(3 1.86945e-16 0)
(3 2.95442e-16 0)
(3 4.6441e-16 0)
(3 8.36513e-16 0)
(3 1.08107e-15 0)
(3 1.49676e-15 0)
(3 8.87182e-16 0)
(3 7.2956e-16 0)
(3 9.62676e-16 0)
(3 9.04143e-16 0)
(3 6.72812e-16 0)
(3 8.43778e-16 0)
(3 1.15075e-15 0)
(3 1.00353e-15 0)
(3 1.21583e-15 0)
(3 9.11198e-16 0)
(3 7.65862e-16 0)
(3 8.35389e-16 0)
(3 1.03746e-15 0)
(3 1.08842e-15 0)
(3 5.70129e-16 0)
(3 2.97289e-16 0)
(3 3.20761e-16 0)
(2.7708 0.00162747 0)
(0.946156 0.00305585 0)
(0.736735 0.00725603 0)
(0.714272 0.0105457 0)
(0.688656 0.00982865 0)
(0.669466 0.00654541 0)
(0.655539 0.0043559 0)
(0.643995 0.00401772 0)
(0.632674 0.00464989 0)
(0.620527 0.0057929 0)
(0.606662 0.00706403 0)
(0.590502 0.00798768 0)
(0.572532 0.00798202 0)
(0.554663 0.00696099 0)
(0.539038 0.00589057 0)
(0.525953 0.00587866 0)
(0.513131 0.00673621 0)
(0.498948 0.00783792 0)
(0.48219 0.00856492 0)
(0.463994 0.0087719 0)
(0.445481 0.00871728 0)
(0.426646 0.00884196 0)
(0.409562 0.00870514 0)
(0.393325 0.00825444 0)
(0.379628 0.00737834 0)
(0.366914 0.00705731 0)
(0.353557 0.00751592 0)
(0.337275 0.00795555 0)
(0.318764 0.00812771 0)
(0.299471 0.00808936 0)
(0.280687 0.008057 0)
(0.262946 0.00817282 0)
(0.245647 0.00839698 0)
(0.228671 0.00869349 0)
(0.211295 0.00897752 0)
(0.193379 0.00919139 0)
(0.17392 0.00931043 0)
(0.154105 0.00938991 0)
(0.134282 0.00953728 0)
(0.114886 0.00977553 0)
(0.095738 0.0100536 0)
(0.0756623 0.010331 0)
(0.0546002 0.0106087 0)
(0.0328974 0.0107584 0)
(0.0111076 0.0109536 0)
(3 -1.86772e-16 0)
(3 1.7365e-16 0)
(3 -2.79597e-16 0)
(3 -3.76187e-16 0)
(3 -7.4136e-16 0)
(3 -6.51666e-16 0)
(3 -5.49605e-16 0)
(3 -1.00248e-15 0)
(3 -7.51641e-16 0)
(3 1.07176e-15 0)
(3 2.76574e-15 0)
(3 2.21773e-15 0)
(3 1.40096e-15 0)
(3 9.30598e-16 0)
(3 1.31533e-15 0)
(3 4.82377e-16 0)
(3 3.90541e-16 0)
(3 3.54319e-17 0)
(3 -4.38265e-16 0)
(3 -3.1209e-16 0)
(3 -4.12142e-17 0)
(3 6.0979e-17 0)
(3 -3.4377e-16 0)
(3 -6.02555e-16 0)
(3 -6.1706e-16 0)
(3 -6.53591e-16 0)
(3 -4.85349e-16 0)
(3 -7.38867e-17 0)
(3 1.8729e-17 0)
(3 3.72041e-16 0)
(3 7.2086e-16 0)
(3 1.42139e-15 0)
(3 1.52404e-15 0)
(3 1.85756e-15 0)
(3 2.17623e-15 0)
(3 2.64165e-15 0)
(3 2.51905e-15 0)
(3 1.69321e-15 0)
(3 1.40571e-15 0)
(3 1.54373e-15 0)
(3 1.94117e-15 0)
(3 1.95241e-15 0)
(3 2.1062e-15 0)
(3 2.65263e-15 0)
(3 2.09065e-15 0)
(3 1.24609e-15 0)
(3 5.98949e-16 0)
(3 3.0556e-16 0)
(3 -1.52892e-16 0)
(3 1.55051e-16 0)
(3 1.39258e-15 0)
(2.77912 0.00892197 0)
(0.946995 0.0163859 0)
(0.730875 0.0249168 0)
(0.706508 0.0284525 0)
(0.682741 0.0255304 0)
(0.666295 0.0177935 0)
(0.653436 0.0125376 0)
(0.641984 0.0119004 0)
(0.630733 0.0139882 0)
(0.618638 0.0174554 0)
(0.604753 0.0212024 0)
(0.588605 0.0237927 0)
(0.570795 0.0237284 0)
(0.553054 0.0209897 0)
(0.537013 0.0180289 0)
(0.523041 0.0176507 0)
(0.509537 0.0198868 0)
(0.494869 0.0229968 0)
(0.477705 0.0250069 0)
(0.45946 0.0254447 0)
(0.441289 0.025196 0)
(0.423107 0.025563 0)
(0.406756 0.0253295 0)
(0.390916 0.0243181 0)
(0.377378 0.022294 0)
(0.364095 0.0215367 0)
(0.350248 0.0227693 0)
(0.333511 0.0237463 0)
(0.314977 0.0240204 0)
(0.295975 0.023818 0)
(0.277616 0.0238498 0)
(0.260226 0.0243822 0)
(0.243151 0.0251454 0)
(0.226262 0.0260085 0)
(0.208907 0.0267574 0)
(0.1911 0.0273103 0)
(0.171887 0.0276978 0)
(0.152446 0.0281211 0)
(0.132891 0.0287629 0)
(0.113824 0.0295937 0)
(0.0947993 0.0303959 0)
(0.0748858 0.0311631 0)
(0.0540503 0.0319846 0)
(0.032567 0.0325072 0)
(0.0110148 0.0331477 0)
(3 -9.74555e-17 0)
(3 -6.5695e-17 0)
(3 -2.23824e-16 0)
(3 -6.8158e-16 0)
(3 -2.40281e-16 0)
(3 3.20972e-16 0)
(3 2.23268e-16 0)
(3 -5.17761e-16 0)
(3 -2.9407e-16 0)
(3 4.18494e-16 0)
(3 1.55672e-15 0)
(3 2.01146e-15 0)
(3 2.47493e-15 0)
(3 2.24957e-15 0)
(3 2.0139e-15 0)
(3 2.1219e-15 0)
(3 1.21584e-15 0)
(3 3.39779e-16 0)
(3 -1.10272e-16 0)
(3 1.74302e-16 0)
(3 5.3431e-16 0)
(3 2.68148e-16 0)
(3 -3.36319e-16 0)
(3 -8.49889e-16 0)
(3 -6.57102e-16 0)
(3 -3.25077e-16 0)
(3 -1.23517e-16 0)
(3 -5.9215e-16 0)
(3 -8.8582e-16 0)
(3 -1.26234e-15 0)
(3 -1.17049e-15 0)
(3 -8.55196e-16 0)
(3 -1.05819e-16 0)
(3 -2.14637e-16 0)
(3 9.48399e-16 0)
(3 2.24869e-15 0)
(3 2.06745e-15 0)
(3 2.00295e-15 0)
(3 1.52215e-15 0)
(3 1.47295e-15 0)
(3 1.73818e-15 0)
(3 2.06686e-15 0)
(3 2.37517e-15 0)
(3 2.62517e-15 0)
(3 2.4898e-15 0)
(3 2.04994e-15 0)
(3 1.39941e-15 0)
(3 8.158e-16 0)
(3 4.53218e-16 0)
(3 6.79041e-17 0)
(3 8.29574e-17 0)
(2.79895 0.0144741 0)
(0.954004 0.0307119 0)
(0.729041 0.0448623 0)
(0.70321 0.0468611 0)
(0.681539 0.0403602 0)
(0.667732 0.0289693 0)
(0.655252 0.0213653 0)
(0.643137 0.0204334 0)
(0.631366 0.0237814 0)
(0.618887 0.0293771 0)
(0.604698 0.0353139 0)
(0.588443 0.0392167 0)
(0.570866 0.0390273 0)
(0.553537 0.0350758 0)
(0.537392 0.0309239 0)
(0.522629 0.0305397 0)
(0.508287 0.0341647 0)
(0.492774 0.0391082 0)
(0.474636 0.0421692 0)
(0.455826 0.042505 0)
(0.437659 0.0417641 0)
(0.419955 0.0420421 0)
(0.404393 0.0414035 0)
(0.389059 0.0397644 0)
(0.37583 0.0368746 0)
(0.362006 0.0360388 0)
(0.347677 0.0382882 0)
(0.330379 0.0400843 0)
(0.311667 0.0405363 0)
(0.292782 0.0400661 0)
(0.274578 0.0399595 0)
(0.257188 0.0406351 0)
(0.240053 0.0416909 0)
(0.222927 0.042937 0)
(0.205445 0.0440974 0)
(0.187521 0.0449689 0)
(0.168649 0.0456749 0)
(0.149668 0.0464595 0)
(0.130397 0.0475094 0)
(0.111734 0.0488428 0)
(0.0928794 0.0501689 0)
(0.0732896 0.0515362 0)
(0.0529093 0.0530105 0)
(0.0319054 0.0539895 0)
(0.0108096 0.0551958 0)
(3 2.06678e-16 0)
(3 -5.77253e-16 0)
(3 -1.18265e-15 0)
(3 -1.46109e-15 0)
(3 -1.36222e-15 0)
(3 -9.29454e-16 0)
(3 -7.06744e-16 0)
(3 -2.28751e-16 0)
(3 3.58089e-16 0)
(3 8.42267e-16 0)
(3 1.12184e-15 0)
(3 2.41993e-15 0)
(3 2.09081e-15 0)
(3 1.05711e-15 0)
(3 5.30094e-16 0)
(3 5.41974e-16 0)
(3 2.26742e-16 0)
(3 3.50397e-16 0)
(3 3.82896e-16 0)
(3 -8.34604e-17 0)
(3 -2.99022e-16 0)
(3 -1.00967e-15 0)
(3 -9.91604e-16 0)
(3 -1.26547e-15 0)
(3 -1.12262e-15 0)
(3 -1.18613e-15 0)
(3 -1.28292e-15 0)
(3 -1.59033e-15 0)
(3 -2.13679e-15 0)
(3 -2.44103e-15 0)
(3 -1.90923e-15 0)
(3 -1.3783e-15 0)
(3 -1.18535e-15 0)
(3 -9.26826e-16 0)
(3 -4.24079e-16 0)
(3 1.26867e-15 0)
(3 1.81267e-15 0)
(3 2.51884e-15 0)
(3 2.56531e-15 0)
(3 2.02863e-15 0)
(3 1.55664e-15 0)
(3 1.26979e-15 0)
(3 1.611e-15 0)
(3 1.75346e-15 0)
(3 1.73569e-15 0)
(3 1.98857e-15 0)
(3 2.3403e-15 0)
(3 2.24721e-15 0)
(3 2.16643e-15 0)
(3 1.17364e-15 0)
(3 -1.56485e-16 0)
(2.82204 0.0178757 0)
(0.962902 0.0481497 0)
(0.725275 0.0661908 0)
(0.701722 0.0628626 0)
(0.684911 0.0526465 0)
(0.673893 0.0387752 0)
(0.661233 0.0300035 0)
(0.647921 0.0293284 0)
(0.634948 0.0340082 0)
(0.621575 0.041544 0)
(0.606873 0.0492809 0)
(0.590477 0.0540299 0)
(0.573185 0.0535775 0)
(0.556338 0.0488329 0)
(0.540277 0.0440852 0)
(0.525039 0.0440666 0)
(0.510196 0.0491606 0)
(0.493988 0.0558797 0)
(0.474849 0.0599073 0)
(0.455376 0.0600266 0)
(0.437065 0.0585525 0)
(0.41967 0.0583841 0)
(0.404805 0.0569893 0)
(0.389851 0.0547296 0)
(0.376747 0.0512996 0)
(0.362244 0.0507315 0)
(0.347399 0.054165 0)
(0.329451 0.0570048 0)
(0.310453 0.0577305 0)
(0.291592 0.056998 0)
(0.273399 0.0567215 0)
(0.255788 0.0574365 0)
(0.238348 0.0586293 0)
(0.220645 0.0600623 0)
(0.20277 0.0614568 0)
(0.184399 0.0625312 0)
(0.165657 0.0634376 0)
(0.147045 0.0645582 0)
(0.127815 0.0659308 0)
(0.109489 0.0676948 0)
(0.0907292 0.0695486 0)
(0.071452 0.0715185 0)
(0.0515833 0.0736908 0)
(0.0311339 0.0751723 0)
(0.0105872 0.0770013 0)
(3 -8.51916e-17 0)
(3 -2.11046e-16 0)
(3 -2.25075e-16 0)
(3 -1.64092e-16 0)
(3 -9.96758e-17 0)
(3 1.75096e-16 0)
(3 5.10683e-16 0)
(3 4.00671e-16 0)
(3 6.4453e-16 0)
(3 6.06861e-16 0)
(3 1.08138e-15 0)
(3 1.7981e-15 0)
(3 2.1297e-16 0)
(3 -1.30557e-16 0)
(3 -2.2941e-16 0)
(3 -5.87383e-16 0)
(3 -4.19148e-16 0)
(3 5.82783e-16 0)
(3 5.84922e-16 0)
(3 1.88655e-16 0)
(3 -7.38532e-16 0)
(3 -1.37062e-15 0)
(3 -1.42791e-15 0)
(3 -9.70317e-16 0)
(3 -6.18311e-16 0)
(3 -6.47967e-16 0)
(3 -9.25891e-16 0)
(3 -1.63425e-15 0)
(3 -2.00917e-15 0)
(3 -2.11362e-15 0)
(3 -1.26198e-15 0)
(3 -5.36931e-16 0)
(3 -6.48508e-16 0)
(3 -5.41542e-16 0)
(3 6.21883e-17 0)
(3 3.16217e-16 0)
(3 2.39649e-15 0)
(3 3.21596e-15 0)
(3 2.97287e-15 0)
(3 2.38887e-15 0)
(3 1.72455e-15 0)
(3 1.24453e-15 0)
(3 1.74136e-15 0)
(3 2.45273e-15 0)
(3 2.74105e-15 0)
(3 3.35439e-15 0)
(3 2.60916e-15 0)
(3 2.49568e-15 0)
(3 2.69645e-15 0)
(3 2.4323e-15 0)
(3 1.8218e-15 0)
(2.84597 0.0235185 0)
(0.974052 0.0721569 0)
(0.720123 0.0840126 0)
(0.705323 0.0744969 0)
(0.693671 0.0614989 0)
(0.683032 0.0476634 0)
(0.668839 0.0400821 0)
(0.653565 0.0401974 0)
(0.638729 0.0457422 0)
(0.62427 0.0543512 0)
(0.609106 0.0630603 0)
(0.592546 0.0681949 0)
(0.575344 0.0675769 0)
(0.558711 0.0625988 0)
(0.542651 0.0579248 0)
(0.52709 0.0585678 0)
(0.511978 0.0650631 0)
(0.495231 0.073286 0)
(0.475279 0.077865 0)
(0.455469 0.0775403 0)
(0.437299 0.0751941 0)
(0.420462 0.0743129 0)
(0.406488 0.0720511 0)
(0.392066 0.069277 0)
(0.379086 0.0655725 0)
(0.363992 0.0655344 0)
(0.34878 0.0702318 0)
(0.330316 0.0742666 0)
(0.311109 0.0754402 0)
(0.292271 0.0745322 0)
(0.274068 0.0741232 0)
(0.256196 0.074847 0)
(0.238259 0.0760695 0)
(0.219961 0.077556 0)
(0.201418 0.0790253 0)
(0.182534 0.0801976 0)
(0.163677 0.0812302 0)
(0.144966 0.0825682 0)
(0.126069 0.0841904 0)
(0.107572 0.0862204 0)
(0.0887785 0.0885665 0)
(0.0697181 0.0911386 0)
(0.0503199 0.0940361 0)
(0.0303927 0.0960443 0)
(0.0103919 0.0985295 0)
(3 9.27359e-17 0)
(3 4.10474e-16 0)
(3 7.9816e-16 0)
(3 5.74521e-16 0)
(3 8.70205e-16 0)
(3 1.23106e-15 0)
(3 1.92573e-15 0)
(3 2.14337e-15 0)
(3 1.50686e-15 0)
(3 9.11858e-16 0)
(3 3.54593e-16 0)
(3 6.15832e-17 0)
(3 -7.64911e-17 0)
(3 8.29607e-18 0)
(3 -5.03446e-17 0)
(3 -7.14328e-17 0)
(3 -5.8037e-17 0)
(3 2.25404e-16 0)
(3 7.3941e-16 0)
(3 9.18334e-16 0)
(3 4.30996e-16 0)
(3 3.99915e-16 0)
(3 2.79713e-16 0)
(3 1.25219e-16 0)
(3 -4.12067e-17 0)
(3 1.6974e-16 0)
(3 -1.62811e-16 0)
(3 -6.53106e-16 0)
(3 -1.02059e-15 0)
(3 -3.33349e-16 0)
(3 -2.84984e-16 0)
(3 -4.67974e-16 0)
(3 -1.13586e-15 0)
(3 -1.10739e-15 0)
(3 -5.18215e-16 0)
(3 -5.12108e-16 0)
(3 1.34412e-15 0)
(3 2.28807e-15 0)
(3 1.51778e-15 0)
(3 1.65174e-16 0)
(3 4.33133e-16 0)
(3 9.59729e-16 0)
(3 2.20934e-15 0)
(3 2.61206e-15 0)
(3 2.66477e-15 0)
(3 2.2044e-15 0)
(3 1.76053e-15 0)
(3 1.78978e-15 0)
(3 2.53754e-15 0)
(3 2.7699e-15 0)
(3 1.62694e-15 0)
(2.87773 0.0331087 0)
(0.99242 0.0996497 0)
(0.720949 0.0956828 0)
(0.714492 0.0821597 0)
(0.704771 0.0685888 0)
(0.691891 0.0579338 0)
(0.675494 0.0527042 0)
(0.658335 0.0534376 0)
(0.642129 0.0591165 0)
(0.626772 0.0678759 0)
(0.61081 0.0768458 0)
(0.593538 0.0821305 0)
(0.5759 0.0814827 0)
(0.559269 0.0766847 0)
(0.543412 0.0725926 0)
(0.527921 0.0741146 0)
(0.512748 0.0818052 0)
(0.495672 0.0910266 0)
(0.475368 0.095808 0)
(0.455708 0.0947343 0)
(0.438031 0.0914024 0)
(0.421954 0.0896681 0)
(0.408828 0.0867053 0)
(0.394914 0.0836286 0)
(0.381891 0.0799517 0)
(0.366236 0.0806611 0)
(0.350719 0.0865616 0)
(0.331867 0.0917688 0)
(0.31251 0.0934268 0)
(0.293706 0.0924163 0)
(0.27548 0.0919593 0)
(0.257379 0.0927535 0)
(0.239003 0.094032 0)
(0.2202 0.095527 0)
(0.201036 0.0969861 0)
(0.181742 0.0981876 0)
(0.162724 0.0992718 0)
(0.143709 0.100717 0)
(0.124987 0.102431 0)
(0.106246 0.104628 0)
(0.0873254 0.107394 0)
(0.0683577 0.110534 0)
(0.0493049 0.114121 0)
(0.029787 0.11664 0)
(0.0102545 0.119728 0)
(3 2.64362e-16 0)
(3 2.21546e-16 0)
(3 4.88189e-16 0)
(3 1.0772e-15 0)
(3 1.07396e-15 0)
(3 1.19265e-15 0)
(3 1.64881e-15 0)
(3 1.97574e-15 0)
(3 2.17828e-15 0)
(3 1.99374e-15 0)
(3 1.39687e-16 0)
(3 -4.63383e-16 0)
(3 1.47571e-16 0)
(3 3.19336e-16 0)
(3 1.11845e-16 0)
(3 4.56997e-16 0)
(3 -3.18032e-16 0)
(3 -4.65549e-16 0)
(3 -1.57193e-16 0)
(3 1.02024e-16 0)
(3 7.02884e-16 0)
(3 1.13708e-15 0)
(3 1.58403e-15 0)
(3 1.06968e-15 0)
(3 7.67678e-16 0)
(3 3.37264e-16 0)
(3 4.7338e-16 0)
(3 5.89054e-16 0)
(3 1.63313e-16 0)
(3 1.56613e-16 0)
(3 -1.58438e-16 0)
(3 -1.08502e-15 0)
(3 -5.6899e-16 0)
(3 -2.20486e-16 0)
(3 -6.85105e-16 0)
(3 -9.5449e-16 0)
(3 -1.50082e-15 0)
(3 -1.63435e-15 0)
(3 -1.02818e-15 0)
(3 -9.35019e-16 0)
(3 -2.5325e-16 0)
(3 7.88142e-16 0)
(3 1.91066e-15 0)
(3 2.95463e-15 0)
(3 2.99654e-15 0)
(3 2.24624e-15 0)
(3 2.81808e-15 0)
(3 2.9971e-15 0)
(3 2.53435e-15 0)
(3 2.21184e-15 0)
(3 2.06954e-15 0)
(2.92007 0.0417839 0)
(1.01624 0.122023 0)
(0.729753 0.101026 0)
(0.725269 0.0859293 0)
(0.713583 0.077261 0)
(0.697863 0.0711738 0)
(0.67941 0.0678327 0)
(0.660967 0.0684867 0)
(0.644044 0.0736074 0)
(0.62797 0.0819908 0)
(0.611205 0.0910032 0)
(0.593363 0.0962125 0)
(0.575714 0.0954509 0)
(0.559629 0.0910123 0)
(0.544334 0.0877977 0)
(0.529064 0.0902341 0)
(0.513772 0.098983 0)
(0.49627 0.108952 0)
(0.475736 0.11339 0)
(0.456358 0.11133 0)
(0.439234 0.106996 0)
(0.423845 0.104467 0)
(0.4113 0.101121 0)
(0.397653 0.0980128 0)
(0.384418 0.0946663 0)
(0.368542 0.0962646 0)
(0.35244 0.103195 0)
(0.333642 0.109464 0)
(0.314341 0.111518 0)
(0.295674 0.110418 0)
(0.277486 0.109981 0)
(0.259218 0.110934 0)
(0.24049 0.112367 0)
(0.22123 0.113914 0)
(0.201577 0.115366 0)
(0.181954 0.116578 0)
(0.162726 0.117646 0)
(0.143437 0.119126 0)
(0.124705 0.120844 0)
(0.105749 0.123126 0)
(0.0866287 0.126235 0)
(0.0676003 0.129862 0)
(0.048679 0.134055 0)
(0.0293632 0.136985 0)
(0.0101775 0.140606 0)
(3 9.56854e-17 0)
(3 3.3141e-16 0)
(3 5.29987e-16 0)
(3 7.73852e-16 0)
(3 4.25419e-16 0)
(3 1.20307e-16 0)
(3 -1.41115e-16 0)
(3 -3.93196e-16 0)
(3 -2.03825e-16 0)
(3 -1.60832e-16 0)
(3 -3.59117e-16 0)
(3 -1.04594e-16 0)
(3 -1.00395e-16 0)
(3 1.99388e-16 0)
(3 2.2083e-16 0)
(3 -3.41246e-16 0)
(3 -9.34882e-16 0)
(3 -9.0954e-16 0)
(3 -1.07583e-15 0)
(3 -1.01125e-15 0)
(3 3.40512e-16 0)
(3 1.75206e-15 0)
(3 1.7971e-15 0)
(3 1.33626e-15 0)
(3 8.93552e-16 0)
(3 2.30782e-16 0)
(3 -1.7357e-16 0)
(3 3.42127e-16 0)
(3 5.73811e-16 0)
(3 -4.56115e-16 0)
(3 -9.56705e-16 0)
(3 -9.29025e-16 0)
(3 2.7931e-16 0)
(3 8.88774e-16 0)
(3 6.84854e-16 0)
(3 -2.36144e-16 0)
(3 -1.02458e-15 0)
(3 -2.13501e-15 0)
(3 -1.48185e-15 0)
(3 7.89717e-17 0)
(3 -2.70388e-16 0)
(3 -3.47204e-16 0)
(3 2.58413e-16 0)
(3 6.92725e-16 0)
(3 2.66151e-15 0)
(3 3.21943e-15 0)
(3 3.30108e-15 0)
(3 3.05531e-15 0)
(3 2.70891e-15 0)
(3 2.18463e-15 0)
(3 2.45836e-15 0)
(2.97005 0.0139149 0)
(1.05679 0.136179 0)
(0.742066 0.109036 0)
(0.731715 0.0942387 0)
(0.716083 0.0906753 0)
(0.698068 0.0865953 0)
(0.679839 0.0834775 0)
(0.662385 0.0836334 0)
(0.645877 0.0882178 0)
(0.629195 0.0964927 0)
(0.611557 0.105601 0)
(0.593325 0.11059 0)
(0.57618 0.109585 0)
(0.560947 0.105554 0)
(0.546104 0.10336 0)
(0.530773 0.106876 0)
(0.514982 0.116616 0)
(0.496847 0.126955 0)
(0.476118 0.130688 0)
(0.457212 0.127443 0)
(0.440813 0.122079 0)
(0.42616 0.118832 0)
(0.414046 0.115369 0)
(0.400582 0.112432 0)
(0.387087 0.109631 0)
(0.371074 0.112173 0)
(0.354532 0.120055 0)
(0.3359 0.12727 0)
(0.316766 0.12962 0)
(0.298277 0.128402 0)
(0.280125 0.128017 0)
(0.261671 0.129213 0)
(0.242573 0.130929 0)
(0.22283 0.132629 0)
(0.202744 0.134134 0)
(0.182836 0.13539 0)
(0.163369 0.136417 0)
(0.143918 0.137896 0)
(0.125142 0.139578 0)
(0.106064 0.141899 0)
(0.0867455 0.14527 0)
(0.0675402 0.14927 0)
(0.0485189 0.153941 0)
(0.0291682 0.157179 0)
(0.0101682 0.161198 0)
(3 -6.81281e-17 0)
(3 1.19405e-16 0)
(3 1.92798e-17 0)
(3 -7.66915e-16 0)
(3 -1.36437e-15 0)
(3 -1.71041e-15 0)
(3 -1.6545e-15 0)
(3 -1.61516e-15 0)
(3 -2.02439e-15 0)
(3 -1.02843e-15 0)
(3 -7.46127e-17 0)
(3 4.461e-16 0)
(3 2.72413e-16 0)
(3 2.23609e-16 0)
(3 -3.30719e-17 0)
(3 -1.43716e-15 0)
(3 -1.40614e-15 0)
(3 -8.71104e-16 0)
(3 4.94595e-16 0)
(3 8.07899e-16 0)
(3 1.1982e-15 0)
(3 1.58145e-15 0)
(3 2.04316e-15 0)
(3 1.77924e-15 0)
(3 8.4012e-16 0)
(3 5.55669e-16 0)
(3 -1.1976e-16 0)
(3 -2.92331e-17 0)
(3 -9.49266e-17 0)
(3 -3.41907e-16 0)
(3 -5.54241e-16 0)
(3 -2.75195e-16 0)
(3 -1.23303e-16 0)
(3 -5.43081e-16 0)
(3 2.86229e-16 0)
(3 2.12597e-16 0)
(3 -4.98367e-17 0)
(3 -9.09032e-16 0)
(3 -1.15674e-15 0)
(3 -1.27841e-15 0)
(3 -1.11082e-15 0)
(3 -5.92657e-16 0)
(3 -1.71278e-16 0)
(3 -1.94333e-16 0)
(3 5.62597e-16 0)
(3 1.34091e-15 0)
(3 1.25057e-15 0)
(3 1.13096e-15 0)
(3 1.82117e-15 0)
(3 1.937e-15 0)
(3 1.39608e-15 0)
(2.99981 0.00195122 0)
(1.1198 0.135543 0)
(0.747379 0.117716 0)
(0.730435 0.106594 0)
(0.714066 0.104816 0)
(0.697402 0.101415 0)
(0.680839 0.0982006 0)
(0.664115 0.0982648 0)
(0.647243 0.102927 0)
(0.629666 0.111447 0)
(0.611688 0.120698 0)
(0.593817 0.125218 0)
(0.577783 0.123742 0)
(0.56341 0.120087 0)
(0.548759 0.11895 0)
(0.533026 0.123591 0)
(0.516373 0.134323 0)
(0.497378 0.144814 0)
(0.476583 0.147579 0)
(0.458409 0.143034 0)
(0.442949 0.136667 0)
(0.429124 0.132814 0)
(0.417305 0.129436 0)
(0.40405 0.126798 0)
(0.390207 0.124709 0)
(0.374041 0.128256 0)
(0.357138 0.137067 0)
(0.33867 0.145184 0)
(0.31965 0.14777 0)
(0.301358 0.1464 0)
(0.28331 0.146041 0)
(0.264693 0.147498 0)
(0.24525 0.149572 0)
(0.225058 0.15152 0)
(0.204582 0.153169 0)
(0.184415 0.154556 0)
(0.164778 0.155589 0)
(0.145178 0.15709 0)
(0.126382 0.15874 0)
(0.107258 0.161072 0)
(0.0877603 0.164616 0)
(0.0682688 0.168863 0)
(0.0489202 0.173885 0)
(0.0292833 0.177331 0)
(0.0102549 0.181671 0)
(3 -8.08406e-17 0)
(3 -5.82443e-16 0)
(3 -7.3419e-16 0)
(3 -6.38958e-16 0)
(3 -8.84386e-16 0)
(3 -1.12085e-15 0)
(3 -1.01189e-15 0)
(3 -1.18319e-15 0)
(3 -4.61624e-16 0)
(3 2.48353e-16 0)
(3 2.39456e-16 0)
(3 3.39852e-16 0)
(3 9.63316e-16 0)
(3 5.82425e-16 0)
(3 -2.04159e-16 0)
(3 -1.17633e-15 0)
(3 -1.99412e-15 0)
(3 -2.41181e-15 0)
(3 -1.35618e-15 0)
(3 -1.09185e-15 0)
(3 -1.90241e-15 0)
(3 -9.77562e-16 0)
(3 1.64022e-16 0)
(3 1.80307e-16 0)
(3 -1.13909e-16 0)
(3 -5.615e-16 0)
(3 -6.73013e-16 0)
(3 -4.09972e-16 0)
(3 -4.95657e-16 0)
(3 -2.55609e-16 0)
(3 -3.21078e-16 0)
(3 -8.10765e-16 0)
(3 -1.68859e-15 0)
(3 -1.6891e-15 0)
(3 -1.4375e-15 0)
(3 -1.32874e-15 0)
(3 -4.31033e-16 0)
(3 -7.01996e-16 0)
(3 -1.01373e-15 0)
(3 -1.37175e-15 0)
(3 -1.61493e-15 0)
(3 -8.46656e-16 0)
(3 -4.73938e-16 0)
(3 -5.74974e-16 0)
(3 -4.33518e-16 0)
(3 -5.93316e-16 0)
(3 -2.26209e-16 0)
(3 9.1569e-16 0)
(3 1.10763e-15 0)
(3 1.11942e-15 0)
(3 4.61227e-16 0)
(3.00001 7.87751e-06 0)
(1.20201 0.144687 0)
(0.753373 0.126632 0)
(0.729723 0.119754 0)
(0.713342 0.117821 0)
(0.697192 0.114718 0)
(0.681471 0.112238 0)
(0.665215 0.112831 0)
(0.648088 0.117763 0)
(0.630184 0.126833 0)
(0.612141 0.136261 0)
(0.594744 0.140007 0)
(0.579669 0.138006 0)
(0.565674 0.13478 0)
(0.550753 0.134568 0)
(0.534362 0.140337 0)
(0.516986 0.151972 0)
(0.497468 0.162167 0)
(0.477221 0.163625 0)
(0.460237 0.157809 0)
(0.445898 0.150666 0)
(0.432919 0.146481 0)
(0.42119 0.143383 0)
(0.408111 0.141163 0)
(0.393804 0.139874 0)
(0.377426 0.144466 0)
(0.360151 0.154216 0)
(0.341717 0.163213 0)
(0.322705 0.166052 0)
(0.304536 0.164535 0)
(0.286534 0.164159 0)
(0.267756 0.165824 0)
(0.247981 0.168248 0)
(0.22735 0.170523 0)
(0.206432 0.172425 0)
(0.185948 0.174067 0)
(0.166154 0.175187 0)
(0.146459 0.176785 0)
(0.127652 0.178446 0)
(0.108555 0.180757 0)
(0.0889637 0.18437 0)
(0.0691964 0.188717 0)
(0.0494585 0.193955 0)
(0.0294678 0.197513 0)
(0.0103462 0.202096 0)
(3 -1.59714e-17 0)
(3 -3.62427e-17 0)
(3 1.63348e-16 0)
(3 2.66048e-16 0)
(3 -4.27851e-16 0)
(3 -6.82004e-16 0)
(3 -1.67035e-15 0)
(3 -1.56569e-15 0)
(3 -1.0896e-15 0)
(3 -6.51997e-16 0)
(3 -4.95475e-16 0)
(3 -9.49007e-16 0)
(3 -6.6522e-16 0)
(3 -9.35273e-16 0)
(3 -9.15769e-16 0)
(3 -7.78324e-16 0)
(3 -8.9605e-16 0)
(3 -9.43157e-16 0)
(3 -2.27438e-15 0)
(3 -2.76395e-15 0)
(3 -2.48416e-15 0)
(3 -1.39422e-15 0)
(3 -1.80248e-15 0)
(3 -2.63456e-15 0)
(3 -2.03908e-15 0)
(3 -2.06605e-15 0)
(3 -1.88311e-15 0)
(3 -2.41489e-16 0)
(3 3.90615e-16 0)
(3 2.76806e-17 0)
(3 -9.95166e-18 0)
(3 -4.25444e-17 0)
(3 -3.11177e-16 0)
(3 -5.33964e-16 0)
(3 -1.14003e-15 0)
(3 -1.93122e-15 0)
(3 -2.15853e-15 0)
(3 -1.98936e-15 0)
(3 -1.06303e-15 0)
(3 -8.38546e-16 0)
(3 -1.14645e-15 0)
(3 -1.04471e-15 0)
(3 -1.24636e-15 0)
(3 -2.33349e-15 0)
(3 -8.63376e-17 0)
(3 4.97074e-16 0)
(3 2.48008e-16 0)
(3 7.89195e-16 0)
(3 2.0476e-16 0)
(3 -3.24038e-16 0)
(3 -4.17282e-16 0)
(3 4.52339e-09 0)
(1.30122 0.154087 0)
(0.758731 0.137837 0)
(0.729031 0.132742 0)
(0.71372 0.130063 0)
(0.697973 0.127213 0)
(0.682665 0.125428 0)
(0.666256 0.126913 0)
(0.648486 0.132938 0)
(0.630174 0.14311 0)
(0.612114 0.152352 0)
(0.595452 0.154829 0)
(0.581367 0.1522 0)
(0.567571 0.149325 0)
(0.552372 0.150029 0)
(0.535578 0.156911 0)
(0.518003 0.169278 0)
(0.498501 0.178547 0)
(0.479299 0.17828 0)
(0.463645 0.171353 0)
(0.450008 0.16396 0)
(0.437429 0.16004 0)
(0.425494 0.157487 0)
(0.412366 0.155807 0)
(0.397629 0.15532 0)
(0.381086 0.160909 0)
(0.363533 0.171554 0)
(0.345095 0.181385 0)
(0.326008 0.184526 0)
(0.307891 0.182876 0)
(0.289895 0.182427 0)
(0.271029 0.184216 0)
(0.251048 0.186922 0)
(0.23016 0.18956 0)
(0.20894 0.191782 0)
(0.188242 0.193792 0)
(0.168334 0.195108 0)
(0.1487 0.196897 0)
(0.129817 0.198634 0)
(0.11072 0.200916 0)
(0.0910052 0.204542 0)
(0.0708645 0.208879 0)
(0.0505709 0.214228 0)
(0.0300262 0.217808 0)
(0.0105501 0.22256 0)
(3 9.67636e-17 0)
(3 2.43795e-16 0)
(3 -9.95974e-18 0)
(3 -1.46946e-16 0)
(3 -1.7327e-16 0)
(3 -2.42306e-16 0)
(3 -6.34686e-16 0)
(3 -5.42217e-16 0)
(3 -1.13313e-15 0)
(3 -1.43562e-15 0)
(3 -7.78346e-16 0)
(3 -1.64345e-15 0)
(3 -2.76765e-15 0)
(3 -2.15316e-15 0)
(3 -1.27572e-15 0)
(3 -7.34028e-16 0)
(3 4.09953e-16 0)
(3 -1.54219e-17 0)
(3 -1.6522e-15 0)
(3 -1.75716e-15 0)
(3 -1.04345e-15 0)
(3 -1.69626e-15 0)
(3 -2.25627e-15 0)
(3 -2.47634e-15 0)
(3 -2.43943e-15 0)
(3 -2.72885e-15 0)
(3 -1.65235e-15 0)
(3 -7.23394e-16 0)
(3 -4.13747e-16 0)
(3 -1.61136e-16 0)
(3 -2.68172e-16 0)
(3 -2.36809e-16 0)
(3 1.51528e-17 0)
(3 -1.85228e-16 0)
(3 -6.03921e-16 0)
(3 -1.07551e-15 0)
(3 -1.59827e-15 0)
(3 -1.53509e-15 0)
(3 -1.54195e-15 0)
(3 -1.40373e-15 0)
(3 -7.60131e-16 0)
(3 -9.43792e-16 0)
(3 -1.68689e-15 0)
(3 -2.3863e-15 0)
(3 -2.07817e-15 0)
(3 -6.16691e-16 0)
(3 -2.48959e-17 0)
(3 -4.50774e-16 0)
(3 -5.6061e-16 0)
(3 -6.51085e-16 0)
(3 -1.36921e-16 0)
(3 1.95945e-13 0)
(1.41853 0.165665 0)
(0.766332 0.151413 0)
(0.73037 0.145906 0)
(0.715869 0.141706 0)
(0.699887 0.138936 0)
(0.684143 0.13823 0)
(0.666785 0.141325 0)
(0.648149 0.149217 0)
(0.629732 0.1605 0)
(0.612088 0.168566 0)
(0.596684 0.169036 0)
(0.583505 0.165656 0)
(0.569748 0.163449 0)
(0.554186 0.165227 0)
(0.536999 0.17338 0)
(0.519409 0.186154 0)
(0.500402 0.193724 0)
(0.482668 0.191456 0)
(0.468383 0.183737 0)
(0.455087 0.176682 0)
(0.442527 0.173652 0)
(0.430199 0.171869 0)
(0.41691 0.170828 0)
(0.401878 0.171122 0)
(0.385364 0.177584 0)
(0.36772 0.189005 0)
(0.34934 0.199587 0)
(0.3301 0.203067 0)
(0.311911 0.201312 0)
(0.293827 0.200753 0)
(0.274883 0.202606 0)
(0.254761 0.205541 0)
(0.233715 0.208572 0)
(0.212252 0.211163 0)
(0.191311 0.213647 0)
(0.171131 0.215311 0)
(0.151426 0.217429 0)
(0.13224 0.219346 0)
(0.112996 0.221638 0)
(0.0930744 0.225268 0)
(0.0725342 0.229519 0)
(0.0516938 0.234881 0)
(0.0306214 0.238383 0)
(0.0107462 0.243215 0)
(3 -1.49506e-16 0)
(3 -2.79457e-16 0)
(3 -4.22951e-16 0)
(3 -3.72532e-16 0)
(3 1.38503e-17 0)
(3 6.47872e-16 0)
(3 1.13927e-15 0)
(3 8.67606e-16 0)
(3 9.66196e-18 0)
(3 -1.34222e-15 0)
(3 -1.43918e-15 0)
(3 -1.05152e-15 0)
(3 -7.61238e-16 0)
(3 -1.98613e-16 0)
(3 2.53629e-16 0)
(3 1.20055e-15 0)
(3 1.816e-15 0)
(3 9.76302e-16 0)
(3 -7.85561e-16 0)
(3 -5.54315e-16 0)
(3 -5.02216e-17 0)
(3 -1.66769e-15 0)
(3 -2.56071e-15 0)
(3 -2.1689e-15 0)
(3 -1.23248e-15 0)
(3 -7.97358e-16 0)
(3 -9.94941e-16 0)
(3 -1.35648e-15 0)
(3 -9.94662e-16 0)
(3 -1.01588e-16 0)
(3 3.68645e-16 0)
(3 4.10988e-16 0)
(3 5.03615e-16 0)
(3 5.30689e-16 0)
(3 1.99126e-16 0)
(3 -1.22952e-16 0)
(3 -4.81986e-16 0)
(3 -6.97421e-16 0)
(3 -7.29294e-16 0)
(3 -4.52633e-16 0)
(3 -2.88396e-16 0)
(3 -7.63226e-16 0)
(3 -1.20852e-15 0)
(3 -1.33533e-15 0)
(3 -1.1339e-15 0)
(3 -4.75803e-16 0)
(3 8.04653e-16 0)
(3 1.12392e-15 0)
(3 1.13853e-15 0)
(3 1.07986e-15 0)
(3 1.86298e-15 0)
(3 -7.58688e-16 0)
(1.55901 0.17919 0)
(0.777776 0.167301 0)
(0.734073 0.158284 0)
(0.71947 0.15311 0)
(0.702145 0.150866 0)
(0.684956 0.151697 0)
(0.666192 0.156974 0)
(0.646744 0.166847 0)
(0.628387 0.178147 0)
(0.611804 0.183607 0)
(0.598417 0.18191 0)
(0.586076 0.178358 0)
(0.572268 0.177209 0)
(0.556162 0.18057 0)
(0.538523 0.190143 0)
(0.521064 0.202588 0)
(0.503319 0.207537 0)
(0.488081 0.203037 0)
(0.474969 0.194907 0)
(0.461641 0.188748 0)
(0.448634 0.187148 0)
(0.435402 0.186472 0)
(0.421495 0.186329 0)
(0.405907 0.187509 0)
(0.389333 0.194791 0)
(0.371566 0.206841 0)
(0.353231 0.218029 0)
(0.333821 0.221796 0)
(0.315453 0.219905 0)
(0.297241 0.219219 0)
(0.278259 0.22113 0)
(0.258096 0.224282 0)
(0.237006 0.227752 0)
(0.215413 0.230772 0)
(0.194278 0.233802 0)
(0.173815 0.235912 0)
(0.153974 0.238423 0)
(0.134513 0.240565 0)
(0.115149 0.242883 0)
(0.0950791 0.24651 0)
(0.0742229 0.250633 0)
(0.052908 0.255947 0)
(0.0313348 0.259281 0)
(0.0109823 0.264111 0)
(3 1.16255e-16 0)
(3 3.39744e-17 0)
(3 8.53685e-17 0)
(3 4.70534e-17 0)
(3 -5.27987e-17 0)
(3 -1.78911e-16 0)
(3 2.8887e-17 0)
(3 4.72831e-16 0)
(3 7.83834e-16 0)
(3 4.16826e-16 0)
(3 -3.05141e-16 0)
(3 -3.13173e-16 0)
(3 -3.36519e-16 0)
(3 -1.1557e-17 0)
(3 6.69806e-16 0)
(3 1.7817e-15 0)
(3 3.09092e-15 0)
(3 2.9728e-15 0)
(3 8.53028e-16 0)
(3 -6.55705e-16 0)
(3 -7.12445e-16 0)
(3 -1.36138e-15 0)
(3 -1.21457e-15 0)
(3 -8.71814e-16 0)
(3 -7.9522e-16 0)
(3 -8.58148e-16 0)
(3 -1.00015e-15 0)
(3 -1.29038e-15 0)
(3 -1.18534e-15 0)
(3 -5.16043e-16 0)
(3 5.64573e-16 0)
(3 8.03029e-16 0)
(3 7.99055e-16 0)
(3 7.76924e-16 0)
(3 7.03998e-16 0)
(3 4.47049e-16 0)
(3 1.46195e-16 0)
(3 2.92969e-16 0)
(3 8.73833e-16 0)
(3 8.82781e-16 0)
(3 -5.86636e-17 0)
(3 -4.24594e-16 0)
(3 -2.33355e-16 0)
(3 2.71176e-16 0)
(3 1.02515e-15 0)
(3 6.62413e-16 0)
(3 1.32085e-15 0)
(3 2.81685e-15 0)
(3 3.45541e-15 0)
(3 3.29661e-15 0)
(3 2.32295e-15 0)
(3 2.40418e-16 0)
(1.72845 0.190727 0)
(0.794833 0.183734 0)
(0.737978 0.171232 0)
(0.722085 0.165852 0)
(0.702949 0.16458 0)
(0.683922 0.167028 0)
(0.663703 0.173974 0)
(0.644357 0.184809 0)
(0.627725 0.194617 0)
(0.613891 0.19684 0)
(0.602698 0.193448 0)
(0.590411 0.190523 0)
(0.576083 0.191123 0)
(0.559254 0.196438 0)
(0.54157 0.207195 0)
(0.524714 0.218013 0)
(0.508935 0.219499 0)
(0.496067 0.213109 0)
(0.483006 0.205518 0)
(0.469033 0.201007 0)
(0.455068 0.201135 0)
(0.440399 0.201738 0)
(0.42552 0.202587 0)
(0.409205 0.204684 0)
(0.392638 0.212729 0)
(0.374968 0.225214 0)
(0.356886 0.236734 0)
(0.337624 0.240596 0)
(0.319199 0.238465 0)
(0.300908 0.237623 0)
(0.281906 0.239654 0)
(0.261758 0.2431 0)
(0.240699 0.247087 0)
(0.21911 0.250629 0)
(0.197876 0.254221 0)
(0.177191 0.256796 0)
(0.157169 0.259694 0)
(0.137434 0.262091 0)
(0.117857 0.264498 0)
(0.0975295 0.268191 0)
(0.0762713 0.272245 0)
(0.0544113 0.277539 0)
(0.0322497 0.280677 0)
(0.0112704 0.28546 0)
(3 -1.04148e-16 0)
(3 4.29207e-16 0)
(3 7.67683e-16 0)
(3 5.49592e-16 0)
(3 1.31069e-16 0)
(3 -1.98419e-16 0)
(3 -2.15409e-16 0)
(3 3.55241e-16 0)
(3 9.15772e-16 0)
(3 1.412e-15 0)
(3 1.26333e-15 0)
(3 1.17504e-15 0)
(3 5.22509e-16 0)
(3 -1.98147e-16 0)
(3 2.62336e-16 0)
(3 9.4665e-16 0)
(3 2.16009e-15 0)
(3 1.88184e-15 0)
(3 1.37339e-15 0)
(3 7.98718e-16 0)
(3 2.25582e-16 0)
(3 3.65624e-16 0)
(3 4.27031e-16 0)
(3 2.90087e-16 0)
(3 -7.55771e-17 0)
(3 -3.11097e-16 0)
(3 -2.24064e-16 0)
(3 -5.89616e-17 0)
(3 -5.77552e-17 0)
(3 2.17598e-17 0)
(3 -1.88547e-16 0)
(3 -4.2562e-16 0)
(3 -1.63604e-16 0)
(3 3.95021e-16 0)
(3 5.3847e-16 0)
(3 -1.25979e-16 0)
(3 3.61733e-16 0)
(3 4.27974e-16 0)
(3 5.50488e-16 0)
(3 2.30979e-16 0)
(3 3.086e-16 0)
(3 1.66092e-17 0)
(3 6.82003e-16 0)
(3 1.72433e-15 0)
(3 1.5896e-15 0)
(3 9.87501e-16 0)
(3 6.14785e-16 0)
(3 1.18191e-15 0)
(3 1.89124e-15 0)
(3 1.24413e-15 0)
(3 1.37155e-15 0)
(3 -2.5944e-16 0)
(1.92515 0.198134 0)
(0.816159 0.202053 0)
(0.737925 0.186183 0)
(0.720315 0.179681 0)
(0.700648 0.179756 0)
(0.681946 0.183863 0)
(0.663035 0.191664 0)
(0.646522 0.201846 0)
(0.63265 0.208336 0)
(0.621091 0.207546 0)
(0.610031 0.204296 0)
(0.597066 0.202917 0)
(0.582112 0.205536 0)
(0.56496 0.212673 0)
(0.547762 0.223852 0)
(0.531491 0.231906 0)
(0.51724 0.230425 0)
(0.505175 0.223481 0)
(0.491871 0.216911 0)
(0.477225 0.214155 0)
(0.462515 0.215751 0)
(0.446701 0.217443 0)
(0.431072 0.219153 0)
(0.414157 0.22214 0)
(0.39757 0.230924 0)
(0.379966 0.243777 0)
(0.362046 0.255492 0)
(0.34275 0.259362 0)
(0.324081 0.256995 0)
(0.305508 0.25601 0)
(0.28632 0.258224 0)
(0.26615 0.262055 0)
(0.245198 0.266592 0)
(0.22376 0.270726 0)
(0.202492 0.274859 0)
(0.181577 0.277919 0)
(0.161217 0.281224 0)
(0.141087 0.283946 0)
(0.121084 0.286558 0)
(0.1003 0.290419 0)
(0.0785112 0.294495 0)
(0.056041 0.299825 0)
(0.0332343 0.302763 0)
(0.0115577 0.307478 0)
(3 -1.56353e-17 0)
(3 2.1399e-16 0)
(3 1.94779e-16 0)
(3 6.59897e-16 0)
(3 8.18598e-16 0)
(3 8.55465e-16 0)
(3 4.18111e-16 0)
(3 8.8126e-17 0)
(3 4.06129e-18 0)
(3 -3.09793e-17 0)