/*--------------------------------*- C++ -*----------------------------------*\
  =========                 |
  \\      /  F ield         | OpenFOAM: The Open Source CFD Toolbox
   \\    /   O peration     | Website:  https://openfoam.org
    \\  /    A nd           | Version:  7
     \\/     M anipulation  |
\*---------------------------------------------------------------------------*/
FoamFile
{
    version     2.0;
    format      ascii;
    class       volScalarField;
    location    "2.8";
    object      p;
}
// * * * * * * * * * * * * * * * * * * * * * * * * * * * * * * * * * * * * * //

dimensions      [1 -1 -2 0 0 0 0];

internalField   nonuniform List<scalar> 
4032
(
1
1
1
1
1
1
1
1
1
1
1
1.01552
6.66848
10.5984
10.756
10.9531
11.1406
11.3197
11.4882
11.6428
11.7816
11.8959
11.985
12.0482
1
1
1
1
1
1
1
1
1
1
1
1.0013
6.49321
10.5486
10.7309
10.9248
11.1113
11.2865
11.4499
11.5978
11.7291
11.8358
11.9173
11.976
1
1
1
1
1
1
1
1
1
1
1
1.00003
6.13052
10.4847
10.6815
10.8711
11.0562
11.2264
11.3837
11.5245
11.6491
11.7508
11.8267
11.8869
1
1
1
1
1
1
1
1
1
1
1
1
5.59853
10.3733
10.6138
10.7973
10.9808
11.1454
11.2965
11.4294
11.5432
11.6297
11.6845
11.7227
1
1
1
1
1
1
1
1
1
1
1
1
4.91709
10.1815
10.5253
10.698
10.8738
11.0245
11.1578
11.2686
11.3584
11.4291
11.4733
11.5293
1
1
1
1
1
1
1
1
1
1
1
1
4.10748
9.8651
10.4176
10.5787
10.7435
10.876
10.988
11.0808
11.1516
11.2069
11.2189
11.1789
1
1
1
1
1
1
1
1
1
1
1
1
3.213
9.38326
10.342
10.4847
10.6253
10.7289
10.8028
10.8511
10.8563
10.8119
10.7354
10.689
1
1
1
1
1
1
1
1
1
1
1
1
2.24465
8.62723
10.2646
10.3679
10.4897
10.5655
10.6003
10.5979
10.5301
10.4338
10.292
10.2723
1
1
1
1
1
1
1
1
1
1
1
1
1.32997
7.64236
10.2773
10.2495
10.3142
10.3435
10.3321
10.2755
10.121
9.84886
9.07545
7.20607
1
1
1
1
1
1
1
1
1
1
1
1
1.01419
6.28703
9.86998
9.90594
9.99376
10.0322
10.004
9.89818
9.66076
9.19673
8.39711
6.32488
1
1
1
1
1
1
1
1
1
1
1
1
0.999965
4.50931
9.44426
9.79347
9.84511
9.82258
9.74081
9.56356
9.25411
8.68514
7.84038
5.91148
1
1
1
1
1
1
1
1
1
1
1
1
0.99999
2.66212
8.55789
9.65027
9.64564
9.61102
9.48293
9.24169
8.8682
8.29336
7.3729
5.79336
1
1
1
1
1
1
1
1
1
1
1
1
0.999998
1.25027
7.34018
9.73688
9.51411
9.36857
9.19885
8.93316
8.53357
7.97477
7.0607
5.86013
1
1
1
1
1
1
1
1
1
1
1
1
1
1.00641
5.4447
9.05163
9.13223
9.07203
8.91054
8.64392
8.26722
7.69965
6.8796
5.93231
1
1
1
1
1
1
1
1
1
1
1
1
1
0.999925
2.92694
8.2398
9.0185
8.93158
8.7426
8.45111
8.0751
7.50342
6.79733
6.01574
1
1
1
1
1
1
1
1
1
1
1
1
1
0.999982
1.27953
6.72655
8.94931
8.78325
8.57069
8.25046
7.88621
7.35407
6.74434
6.07183
1
1
1
1
1
1
1
1
1
1
1
1
1
0.999997
1.0066
4.27012
8.3695
8.55777
8.36434
8.09499
7.73108
7.25387
6.71808
6.1254
1
1
1
1
1
1
1
1
1
1
1
1
1
1
0.999969
1.66058
7.30059
8.58431
8.27281
8.00138
7.62089
7.1646
6.67561
6.14598
1
1
1
1
1
1
1
1
1
1
1
1
1
1
0.999992
1.03622
5.05904
8.16621
8.07885
7.85327
7.50722
7.08274
6.62892
6.15496
1
1
1
1
1
1
1
1
1
1
1
1
1
1
0.999999
1.00004
2.02813
7.20301
8.12274
7.79736
7.4398
7.0419
6.62691
6.19241
1
1
1
1
1
1
1
1
1
1
1
1
1
1
1
1
1.08084
5.10773
7.8596
7.66436
7.3409
6.98706
6.60807
6.20803
1
1
1
1
1
1
1
1
1
1
1
1
1
1
1
1
1.00049
2.08883
6.75483
7.66279
7.31022
6.96678
6.60172
6.22894
1
1
1
1
1
1
1
1
1
1
1
1
1
1
1
1
1
1.0873
4.51631
7.43234
7.24361
6.91435
6.57645
6.23227
1
1
1
1
1
1
1
1
1
1
1
1
1
1
1
1
1
1.0008
1.82949
6.06891
7.23383
6.88293
6.58693
6.26634
1
1
1
1
1
1
1
1
1
1
1
1
1
1
1
1
1
1
1.05149
3.38343
6.7279
6.88499
6.60258
6.30333
1
1
1
1
1
1
1
1
1
1
1
1
1
1
1
1
1
1
1.00051
1.39712
4.94595
6.91601
6.64811
6.35596
1
1
1
1
1
1
1
1
1
1
1
1
1
1
1
1
1
1
1
1.01377
2.21895
5.8391
6.65634
6.37888
1
1
1
1
1
1
1
1
1
1
1
1
1
1
1
1
1
1
1
1.0001
1.10868
3.39545
6.15904
6.4203
1
1
1
1
1
1
1
1
1
1
1
1
1
1
1
1
1
1
1
1
1.00187
1.41445
4.4205
6.27793
1
1
1
1
1
1
1
1
1
1
1
1
1
1
1
1
1
1
1
1
1.00001
1.01594
1.9502
5.08699
1
1
1
1
1
1
1
1
1
1
1
1
1
1
1
1
1
1
1
1
1
1.00014
1.0709
2.60528
1
1
1
1
1
1
1
1
1
1
1
1
1
1
1
1
1
1
1
1
1
1
1.00112
1.19481
1
1
1
1
1
1
1
1
1
1
1
1
1
1
1
1
1
1
1
1
1
1
1
1.00506
1
1
1
1
1
1
1
1
1
1
1
1
1
1
1
1
1
1
1
1
1
1
1
1.00003
1
1
1
1
1
1
1
1
1
1
1
1
1
1
1
1
1
1
1
1
1
1
1
1
1
1
1
1
1
1
1
1
1
1
1
1
1
1
1
1
1
1
1
1
1
1
1
1
1
1
1
1
1
1
1
1
1
1
1
1
1
1
1
1
1
1
1
1
1
1
1
1
1
1
1
1
1
1
1
1
1
1
1
1
1
1
1
1
1
1
1
1
1
1
1
1
1
1
1
1
1
1
1
1
1
1
1
1
1
1
1
1
1
1
1
1
1
1
1
1
1
1
1
1
1
1
1
1
1
1
1
1
1
1
1
1
1
1
1
1
1
1
1
1
1.60132
0.489315
0.160806
0.114176
0.149367
0.243475
0.357773
0.487743
0.656177
0.80639
0.905014
0.995101
1.09171
1.16906
1.21157
1.25192
1.27839
1.26732
1.27226
1.28779
1.29144
1.27879
1.27251
1.27905
1.2878
1.30735
1.3367
1.34617
1.34359
1.32804
1.30577
1.29916
1.29891
1.33498
3.34708
6.57984
6.7689
6.5333
6.3756
6.24626
6.1891
6.12029
6.0305
5.87691
5.72907
5.61464
5.52611
5.44359
5.35607
5.25859
5.15267
5.04459
4.93109
4.82125
4.71436
4.61147
4.52119
4.43914
4.3682
4.30625
4.22895
4.14422
4.05489
3.96404
3.88473
3.82002
3.76454
3.71985
3.68196
3.63637
3.58107
3.50108
3.37577
3.25324
3.18428
3.13946
3.10059
3.07105
3.05355
3.02898
2.99252
2.94754
2.87093
2.76832
2.70298
2.66632
2.63539
2.61264
2.59529
2.57118
2.54282
2.4939
2.40569
2.32392
2.29365
2.255
2.69019
1.46303
0.971838
0.620017
0.538017
0.545383
0.514917
0.504612
0.51832
0.570648
0.639489
0.706596
0.79779
0.912024
1.00188
1.07604
1.15551
1.18847
1.21051
1.23786
1.26067
1.26765
1.27806
1.28662
1.28732
1.29014
1.30257
1.32144
1.33045
1.33512
1.32942
1.31389
1.3288
1.48624
3.04143
6.24156
6.65802
6.41595
6.19303
6.10302
6.04943
6.01507
5.95364
5.82386
5.69503
5.58505
5.48667
5.39756
5.31777
5.23816
5.1375
5.02444
4.91045
4.80641
4.70964
4.61832
4.5291
4.43925
4.35696
4.28267
4.21862
4.14734
4.07056
3.9914
3.91047
3.8336
3.76576
3.7096
3.65791
3.60696
3.5536
3.48806
3.39792
3.29666
3.20984
3.15043
3.10922
3.07712
3.0502
3.01511
2.97543
2.92974
2.87044
2.7916
2.7184
2.67158
2.63949
2.61235
2.58536
2.55761
2.52714
2.48712
2.42279
2.3451
2.29632
2.25066
3.65617
2.33415
1.66966
1.26305
1.01971
0.884028
0.745131
0.622928
0.593296
0.59001
0.606219
0.651665
0.7009
0.764896
0.846456
0.917081
1.00543
1.10351
1.1628
1.20698
1.25023
1.26703
1.28816
1.31695
1.33179
1.32952
1.31843
1.30272
1.29872
1.30405
1.31765
1.34891
1.52301
2.1307
2.95235
4.83258
6.18427
6.40697
6.27382
6.21976
6.09001
5.99913
5.89695
5.79889
5.72215
5.62649
5.5035
5.38673
5.29376
5.22426
5.14613
5.04735
4.93273
4.81202
4.70671
4.61879
4.53964
4.46006
4.37009
4.27393
4.19437
4.12391
4.0609
3.99993
3.93886
3.87274
3.79605
3.71315
3.63627
3.56962
3.50475
3.43858
3.37952
3.32078
3.25736
3.19022
3.13122
3.08318
3.03943
2.99629
2.95009
2.89834
2.84639
2.79937
2.75079
2.69689
2.64668
2.60687
2.57271
2.53862
2.50113
2.46013
2.41898
2.37084
2.31784
2.25062
4.20866
3.16448
2.38733
1.83354
1.51253
1.28128
1.10226
0.949367
0.876636
0.817049
0.7509
0.70226
0.686546
0.696435
0.722484
0.758926
0.828054
0.94003
1.03241
1.08202
1.13279
1.17305
1.20727
1.25925
1.32669
1.34486
1.34191
1.32321
1.30107
1.29667
1.32019
1.47935
2.06261
3.00468
3.19104
3.51623
4.58657
5.64415
6.12175
6.27964
6.14006
5.98253
5.80699
5.71367
5.66224
5.58594
5.47831
5.35322
5.2573
5.17827
5.10034
5.01856
4.92538
4.8137
4.69716
4.59605
4.51124
4.43364
4.35465
4.26989
4.18823
4.11957
4.05587
3.9932
3.93258
3.8704
3.79803
3.71148
3.62332
3.54429
3.47409
3.41654
3.37033
3.32644
3.27968
3.22329
3.15535
3.08719
3.0287
2.97542
2.92009
2.86803
2.83129
2.80004
2.7665
2.72438
2.66754
2.6098
2.56326
2.51996
2.47457
2.43441
2.4065
2.37828
2.34596
2.27217
4.65819
3.75356
3.01179
2.3956
2.03078
1.73349
1.44713
1.25326
1.12396
1.03296
0.960923
0.887419
0.812909
0.741777
0.730611
0.735692
0.753797
0.795046
0.855622
0.905904
0.962462
1.04391
1.10852
1.17227
1.24809
1.29055
1.29135
1.28894
1.28812
1.30574
1.47278
2.08217
2.86938
3.38063
3.32088
3.24794
3.39829
4.17526
5.27737
5.89112
6.17388
6.05389
5.82352
5.67819
5.61121
5.54082
5.46238
5.3653
5.25822
5.15802
5.06696
4.98751
4.90594
4.81211
4.705
4.59709
4.49857
4.40936
4.32637
4.2466
4.17559
4.11434
4.05319
3.99202
3.9299
3.86232
3.78217
3.68404
3.58246
3.50736
3.45626
3.41515
3.37625
3.33687
3.29447
3.24249
3.17205
3.08584
3.00452
2.94047
2.89228
2.85946
2.83278
2.80616
2.77474
2.73696
2.68182
2.60835
2.54357
2.49302
2.45084
2.42072
2.39862
2.37636
2.35457
2.29593
4.9768
4.19611
3.49883
2.90138
2.46637
2.13628
1.8512
1.63164
1.43146
1.2439
1.15889
1.11032
1.04758
0.954416
0.860427
0.807398
0.797947
0.80366
0.80601
0.812768
0.827813
0.870082
0.936899
0.99595
1.06792
1.16324
1.21657
1.24176
1.27021
1.42387
2.09386
2.96397
3.33414
3.3073
3.26324
3.23578
3.23916
3.34713
3.92229
4.90689
5.77499
5.88835
5.80336
5.67325
5.60293
5.52344
5.43417
5.33699
5.21946
5.11613
5.02997
4.95012
4.87123
4.78722
4.69181
4.58964
4.4911
4.39831
4.30842
4.22271
4.15477
4.09587
4.03593
3.9765
3.91715
3.85358
3.77858
3.68143
3.56691
3.48912
3.4476
3.40997
3.37283
3.33379
3.29164
3.24094
3.1721
3.08086
2.98496
2.91853
2.88424
2.8584
2.835
2.81133
2.78239
2.74816
2.69479
2.60373
2.51212
2.46193
2.43574
2.41537
2.39658
2.37705
2.35771
2.30781
5.22811
4.54181
3.87512
3.32131
2.8912
2.49635
2.15606
1.94897
1.75246
1.56003
1.36724
1.26567
1.20982
1.14292
1.05984
0.959927
0.869505
0.833438
0.824378
0.829527
0.848837
0.862021
0.854184
0.846299
0.865703
0.926946
1.02204
1.12124
1.28811
1.91507
2.84952
3.28529
3.3666
3.30194
3.2593
3.26315
3.25649
3.23723
3.28493
3.61715
4.5394
5.35373
5.63915
5.65
5.63976
5.5481
5.42449
5.31833
5.18588
5.07314
4.98632
4.90575
4.83118
4.75045
4.66496
4.58068
4.49897
4.41405
4.31785
4.2133
4.13042
4.07032
4.012
3.95454
3.89897
3.84114
3.77486
3.68834
3.57328
3.47917
3.43341
3.3949
3.35513
3.31281
3.26692
3.2145
3.14994
3.06873
2.9835
2.92707
2.89304
2.86383
2.83706
2.81106
2.7828
2.7471
2.68662
2.58682
2.49329
2.45097
2.42772
2.40721
2.38858
2.37168
2.35492
2.30949
5.39752
4.77464
4.17038
3.65787
3.23655
2.8129
2.45723
2.21751
2.0063
1.81173
1.64382
1.48868
1.35034
1.28706
1.23998
1.16783
1.06227
0.96007
0.928396
0.918027
0.907654
0.894472
0.873269
0.84723
0.827387
0.833788
0.864457
0.971274
1.49121
2.40746
2.91026
3.13589
3.19178
3.15944
3.13592
3.19495
3.24267
3.22693
3.17965
3.14215
3.33175
4.0105
4.92619
5.36237
5.50925
5.54491
5.41522
5.30286
5.17597
5.06894
4.96371
4.84861
4.74761
4.67422
4.61489
4.56642
4.50833
4.44177
4.35679
4.23711
4.11084
4.0313
3.97691
3.92739
3.87915
3.83046
3.77725
3.70721
3.60025
3.47344
3.40499
3.36567
3.32679
3.28459
3.23826
3.18723
3.13126
3.06971
3.00322
2.94162
2.89806
2.86601
2.83744
2.80725
2.77032
2.7183
2.64852
2.56779
2.49702
2.45086
2.42167
2.39907
2.37917
2.36314
2.35442
2.31601
5.52399
4.96443
4.41246
3.91151
3.50803
3.11788
2.75636
2.47855
2.24277
2.02724
1.87958
1.74476
1.57119
1.41856
1.3605
1.31356
1.24531
1.16874
1.088
1.0085
0.947622
0.916498
0.909775
0.894275
0.876401
0.865512
0.925382
1.30793
2.05968
2.4366
2.63941
2.72094
2.76546
2.84228
2.94935
3.04408
3.11697
3.11113
3.08002
3.05224
3.00513
3.10615
3.60145
4.49309
5.08418
5.38987
5.36465
5.27045
5.17548
5.07989
4.97103
4.81426
4.68399
4.61427
4.55737
4.52562
4.49881
4.44373
4.37722
4.27731
4.12998
4.00883
3.94617
3.89805
3.85462
3.81444
3.76873
3.71442
3.63222
3.50232
3.38242
3.3254
3.28683
3.24923
3.20818
3.16517
3.12363
3.0813
3.02866
2.9604
2.90444
2.873
2.84045
2.80027
2.74766
2.68322
2.61745
2.56245
2.51334
2.4661
2.43029
2.40623
2.38413
2.36068
2.34095
2.29286
5.60888
5.09845
4.59358
4.14158
3.73502
3.33912
3.01212
2.75226
2.49494
2.22667
2.0671
1.94964
1.8097
1.6577
1.51395
1.40911
1.36201
1.32391
1.26496
1.19033
1.08841
0.99893
0.979639
0.967676
0.946379
0.985574
1.32241
1.98876
2.46287
2.48122
2.45851
2.43273
2.43145
2.44645
2.52386
2.61604
2.72499
2.80146
2.8559
2.89182
2.89909
2.91382
2.98085
3.28204
3.92412
4.7165
5.0478
5.14987
5.17971
5.08392
4.98976
4.82291
4.65449
4.56443
4.50602
4.47306
4.45502
4.41015
4.35182
4.27838
4.16702
4.0276
3.92445
3.86857
3.82411
3.78298
3.73957
3.69295
3.63366
3.53832
3.40511
3.30343
3.24882
3.20861
3.17549
3.14764
3.11911
3.08789
3.0476
2.98545
2.90284
2.83338
2.78791
2.74753
2.70344
2.65324
2.60893
2.57022
2.52695
2.4786
2.43789
2.4098
2.38417
2.35677
2.32711
2.26276
5.67797
5.2094
4.75313
4.3329
3.94108
3.56544
3.23504
2.96435
2.71632
2.4778
2.2876
2.10521
1.95893
1.85097
1.73147
1.61044
1.48595
1.39599
1.3589
1.32321
1.26111
1.17327
1.0789
1.03568
1.06201
1.36355
2.09832
2.59616
2.60171
2.53126
2.44838
2.39753
2.39408
2.39397
2.36203
2.32118
2.33183
2.38109
2.45424
2.54479
2.65588
2.7345
2.77162
2.7882
2.91851
3.39864
4.13197
4.68388
4.96329
5.02015
4.97685
4.84857
4.69101
4.55303
4.47388
4.42259
4.38717
4.3499
4.29666
4.23777
4.16523
4.06655
3.94609
3.84847
3.79083
3.74505
3.70063
3.65576
3.60603
3.54095
3.44437
3.32073
3.22849
3.18307
3.15255
3.12793
3.11043
3.08513
3.05161
2.99789
2.90086
2.80055
2.74269
2.70178
2.66514
2.63707
2.61385
2.58574
2.54552
2.48936
2.43339
2.39388
2.36314
2.33421
2.30251
2.23624
5.75183
5.30682
4.88523
4.49095
4.10831
3.75575
3.44969
3.16648
2.89627
2.67926
2.49977
2.31159
2.11792
1.97662
1.87715
1.77822
1.67129
1.57047
1.45349
1.37942
1.35403
1.30402
1.22103
1.23851
1.53951
2.28699
2.8328
2.82362
2.72186
2.62174
2.55546
2.51049
2.46073
2.41143
2.35996
2.30366
2.25593
2.22497
2.20448
2.21406
2.26371
2.34321
2.41481
2.46795
2.47891
2.5506
2.90218
3.54372
4.30472
4.67787
4.83728
4.84871
4.74054
4.61358
4.47133
4.36711
4.3125
4.26768
4.22382
4.17612
4.12583
4.06471
3.97819
3.86413
3.76665
3.70508
3.65557
3.60886
3.56304
3.5137
3.44975
3.35684
3.24856
3.17458
3.13618
3.10812
3.08598
3.06405
3.03499
2.98959
2.89599
2.77273
2.70087
2.6669
2.64461
2.62791
2.61256
2.59207
2.56277
2.50654
2.42316
2.36714
2.33962
2.30905
2.27523
2.21362
5.79124
5.37749
4.99221
4.62219
4.2548
3.93048
3.63882
3.35742
3.08612
2.86582
2.66606
2.48488
2.30062
2.15954
2.02673
1.87733
1.78961
1.72727
1.63106
1.51072
1.41993
1.37086
1.41143
1.76701
2.58673
3.16269
3.12451
2.9969
2.87206
2.78174
2.71969
2.65252
2.58044
2.50887
2.43962
2.37099
2.29221
2.21497
2.17486
2.15768
2.14308
2.13322
2.12879
2.13973
2.15117
2.14508
2.18838
2.3859
2.92907
3.64802
4.31707
4.60786
4.64864
4.63815
4.51279
4.36203
4.25084
4.19102
4.15003
4.12167
4.07923
4.03313
3.97439
3.88063
3.76091
3.67189
3.6126
3.56278
3.51756
3.47436
3.42735
3.3665
3.2844
3.199
3.13453
3.08796
3.05466
3.02818
3.00143
2.9595
2.87983
2.76863
2.68826
2.65419
2.63329
2.61562
2.60007
2.58251
2.55998
2.51463
2.429
2.34351
2.29259
2.25965
2.23124
2.18682
5.83914
5.45661
5.0984
4.74323
4.39656
4.09548
3.80671
3.52041
3.26301
3.04772
2.83656
2.63496
2.45629
2.31754
2.1842
2.04716
1.9006
1.81228
1.74869
1.65106
1.54023
1.5674
1.96242
2.84438
3.4819
3.46021
3.3112
3.17539
3.06476
2.96322
2.87413
2.79514
2.71969
2.64292
2.56424
2.482
2.39214
2.29851
2.22023
2.16112
2.11864
2.08866
2.0683
2.05477
2.02817
1.97702
1.92595
1.91694
1.98852
2.29667
2.92523
3.69278
4.20797
4.46149
4.45171
4.38942
4.2496
4.15415
4.11274
4.08205
4.03562
3.99261
3.94267
3.86414
3.7514
3.6451
3.57438
3.52293
3.47868
3.43712
3.39486
3.34808
3.29007
3.21697
3.14135
3.0793
3.0303
2.98756
2.94599
2.9007
2.8445
2.77703
2.71481
2.66153
2.62059
2.5947
2.57634
2.56167
2.54073
2.50097
2.43078
2.32973
2.25995
2.22132
2.19999
2.17451
5.87985
5.53534
5.19294
4.84742
4.53135
4.24076
3.95391
3.66644
3.43142
3.20569
2.99276
2.78073
2.62118
2.46137
2.30663
2.18148
2.06114
1.9468
1.83518
1.7378
1.77599
2.22903
3.15588
3.78085
3.77821
3.63458
3.49197
3.37217
3.24765
3.12953
3.02893
2.94002
2.85622
2.77413
2.69203
2.60901
2.52029
2.41998
2.31811
2.2355
2.17427
2.12293
2.07687
2.03617
1.99855
1.96236
1.91678
1.85254
1.81216
1.81111
1.89575
2.25006
2.87917
3.64667
4.06744
4.24149
4.19189
4.141
4.11507
4.05931
4.00878
3.95833
3.89594
3.81983
3.72867
3.63192
3.55502
3.49906
3.45152
3.40663
3.36187
3.31678
3.26777
3.20666
3.13557
3.07006
3.01429
2.96046
2.90535
2.8512
2.80388
2.76485
2.7241
2.67711
2.63008
2.58793
2.54912
2.51297
2.48756
2.46531
2.41671
2.32808
2.24391
2.2044
2.19231
2.17159
5.93746
5.61615
5.28898
4.95873
4.65897
4.37234
4.08339
3.8142
3.58276
3.35526
3.13299
2.92757
2.7682
2.60534
2.451
2.30009
2.19174
2.07535
1.95188
2.00745
2.54432
3.53087
4.09174
4.08003
3.93654
3.79445
3.68365
3.5605
3.4213
3.28252
3.16457
3.06683
2.97881
2.8952
2.81361
2.7318
2.64566
2.54818
2.44144
2.34589
2.27052
2.20622
2.14629
2.08596
2.02924
1.97728
1.92416
1.85618
1.79393
1.7712
1.75009
1.74292
1.83072
2.16514
2.78864
3.47324
3.89372
3.93196
4.00255
4.02157
3.97741
3.91279
3.84093
3.76783
3.69115
3.60716
3.53733
3.48628
3.44094
3.39626
3.34953
3.29762
3.24126
3.18341
3.12586
3.06679
3.00256
2.9384
2.87862
2.8248
2.78018
2.74253
2.70859
2.67306
2.62883
2.57935
2.53101
2.48599
2.44559
2.40184
2.35634
2.3068
2.25029
2.20611
2.19041
2.16624
5.99527
5.67969
5.36407
5.06488
4.77288
4.4815
4.19359
3.9515
3.71594
3.49097
3.25834
3.0794
2.90446
2.74199
2.57681
2.4347
2.31185
2.18287
2.27764
2.9683
4.13394
4.50841
4.37894
4.1941
4.06027
3.96789
3.86054
3.73872
3.60056
3.43962
3.29116
3.18092
3.08985
3.0051
2.92354
2.84271
2.75782
2.66192
2.55029
2.43554
2.34127
2.27028
2.21175
2.15534
2.09764
2.03883
1.97515
1.90741
1.83749
1.77909
1.73181
1.70443
1.68909
1.67837
1.76275
2.06723
2.69234
3.25781
3.72536
3.86738
3.86504
3.86021
3.80086
3.72638
3.65191
3.56577
3.49531
3.45301
3.41572
3.37574
3.33101
3.28222
3.23235
3.17741
3.10366
3.01125
2.93824
2.89314
2.85426
2.81578
2.77832
2.73803
2.68982
2.63606
2.59108
2.55408
2.51555
2.47236
2.42184
2.36834
2.32132
2.28491
2.25148
2.21985
2.19719
2.16147
6.05767
5.74414
5.43788
5.15142
4.86951
4.58161
4.31582
4.0758
3.84437
3.61273
3.4
3.22242
3.04249
2.87352
2.6966
2.56192
2.4358
2.57186
3.38884
4.66048
5.04665
4.84694
4.54339
4.34394
4.23645
4.13989
4.0213
3.89676
3.76114
3.59749
3.42261
3.2889
3.18881
3.10014
3.01656
2.93555
2.85372
2.76535
2.66517
2.55503
2.44693
2.3533
2.27584
2.21152
2.15676
2.10481
2.04789
1.98313
1.91358
1.84116
1.77414
1.72138
1.67989
1.64279
1.62445
1.61831
1.70337
1.99886
2.55727
3.11382
3.49459
3.68211
3.7286
3.71844
3.6535
3.56577
3.49713
3.43443
3.37252
3.32365
3.28331
3.2496
3.21641
3.16802
3.08343
2.97895
2.90332
2.85684
2.82078
2.79119
2.76322
2.72738
2.67676
2.61888
2.56574
2.51861
2.47892
2.44429
2.40764
2.36717
2.31895
2.27196
2.24094
2.21576
2.19325
2.15149
6.07323
5.78147
5.50156
5.2214
4.94086
4.67387
4.43642
4.19483
3.96134
3.72677
3.54112
3.34935
3.1722
2.97912
2.82025
2.69617
2.87883
3.8453
5.02471
5.47314
5.32937
5.07067
4.79678
4.566
4.42734
4.29559
4.16263
4.03247
3.89802
3.74532
3.57116
3.41092
3.29065
3.19128
3.09932
3.01081
2.92369
2.8354
2.74335
2.64672
2.54787
2.45098
2.3586
2.27426
2.2008
2.13531
2.07534
2.01941
1.96468
1.90343
1.83965
1.77734
1.71864
1.66682
1.62036
1.58476
1.56791
1.5612
1.62634
1.90382
2.37899
2.9516
3.28819
3.50704
3.55007
3.55391
3.52536
3.43862
3.36058
3.3126
3.27133
3.22322
3.16869
3.10855
3.03921
2.95374
2.88022
2.8369
2.80418
2.77216
2.73886
2.70318
2.65972
2.59639
2.5317
2.49428
2.47059
2.44855
2.42381
2.38936
2.33657
2.27126
2.21704
2.19132
2.17672
2.1476
6.1501
5.85288
5.58581
5.31549
5.03751
4.78929
4.54863
4.31115
4.06676
3.86041
3.66559
3.47623
3.2736
3.08925
2.98397
3.29087
4.50274
5.59477
5.87642
5.72619
5.49394
5.28346
5.05609
4.8165
4.6128
4.44107
4.29199
4.15391
4.01721
3.87409
3.71962
3.56225
3.41923
3.2944
3.18104
3.07441
2.97423
2.88077
2.79294
2.70872
2.62574
2.541
2.45243
2.36227
2.2765
2.19948
2.13011
2.06568
2.0044
1.94449
1.8869
1.83166
1.77807
1.72313
1.66608
1.61196
1.55913
1.52908
1.51772
1.50675
1.56003
1.81017
2.28287
2.81717
3.11645
3.30735
3.38189
3.38498
3.36751
3.32204
3.26555
3.20096
3.13328
3.0636
2.98909
2.9165
2.85872
2.81682
2.78176
2.74974
2.72274
2.69982
2.65789
2.58376
2.5149
2.47298
2.44009
2.41131
2.38172
2.34543
2.30419
2.25304
2.20574
2.17828
2.15655
2.1088
6.23208
5.94851
5.67094
5.39478
5.12956
4.8886
4.64802
4.40427
4.17145
3.97385
3.77752
3.56831
3.3723
3.27753
3.7147
5.23797
6.44819
6.34603
6.08531
5.81949
5.62129
5.46823
5.26285
5.03895
4.82034
4.61033
4.42496
4.26727
4.12125
3.97945
3.84072
3.70497
3.57045
3.43455
3.29588
3.15868
3.03166
2.92174
2.82898
2.74807
2.67316
2.59863
2.51909
2.43221
2.34226
2.25822
2.18339
2.11634
2.05321
1.9901
1.92623
1.8644
1.80786
1.75387
1.70406
1.65236
1.5975
1.55027
1.50454
1.47812
1.46741
1.45384
1.51102
1.71988
2.16765
2.63898
3.03782
3.13733
3.21576
3.24873
3.22415
3.18011
3.10267
3.01372
2.94625
2.89108
2.841
2.79825
2.76477
2.73463
2.6998
2.65342
2.59735
2.54701
2.50643
2.46157
2.41923
2.38684
2.35786
2.32361
2.27338
2.22359
2.19988
2.17808
2.15039
2.09049
6.17855
6.02457
5.74378
5.4636
5.21449
4.9779
4.73743
4.49283
4.27963
4.08567
3.86965
3.66345
3.62362
4.2443
5.79492
7.10747
7.14531
6.74817
6.28428
5.96063
5.76922
5.62674
5.44282
5.23826
5.03585
4.82359
4.59465
4.38328
4.20841
4.05821
3.92465
3.80145
3.68117
3.55545
3.4171
3.26673
3.11802
2.99032
2.88832
2.80225
2.72327
2.64613
2.56627
2.4795
2.38673
2.29797
2.2209
2.15557
2.09674
2.03948
1.98072
1.91796
1.85103
1.78563
1.73013
1.68089
1.63719
1.59289
1.54361
1.49893
1.45579
1.42315
1.40341
1.38778
1.44789
1.64027
2.05356
2.49556
2.86299
3.0831
3.10454
3.08354
3.02907
2.95933
2.90055
2.85441
2.81118
2.78404
2.76594
2.73447
2.68509
2.62019
2.56348
2.51881
2.46622
2.42774
2.40503
2.37755
2.34523
2.303
2.25367
2.21531
2.18089
2.13625
2.09376
2.04258
5.46042
6.04503
5.84613
5.54758
5.30713
5.06869
4.82877
4.59011
4.38471
4.18564
3.9664
4.04722
4.95697
6.61669
7.55242
7.59072
7.29244
6.95491
6.59757
6.23795
5.9724
5.77796
5.5978
5.39724
5.19446
4.98405
4.75428
4.51848
4.3136
4.14797
4.00634
3.87763
3.75583
3.63383
3.50179
3.35393
3.19888
3.05917
2.9493
2.86174
2.78343
2.70598
2.62382
2.53207
2.43064
2.33104
2.24676
2.17934
2.12283
2.07179
2.01965
1.96119
1.89533
1.82768
1.7664
1.71537
1.67312
1.63152
1.59302
1.55251
1.50137
1.44887
1.39801
1.36077
1.3401
1.32693
1.37416
1.57651
1.9373
2.40171
2.71329
2.91335
2.94961
2.94314
2.91638
2.86088
2.80847
2.76708
2.71833
2.66456
2.61972
2.58506
2.55157
2.50618
2.45135
2.4001
2.35454
2.31821
2.28491
2.25354
2.22805
2.20308
2.16892
2.11975
2.06929
2.01651
3.29156
5.59547
5.90584
5.66438
5.39243
5.15588
4.92887
4.67224
4.49201
4.31308
4.55027
5.82535
7.72214
8.18844
8.0608
7.66301
7.37679
7.15687
6.87748
6.52888
6.21472
5.96421
5.74215
5.53005
5.32036
5.10547
4.87821
4.645
4.4338
4.25939
4.10886
3.96862
3.83288
3.6996
3.5643
3.42074
3.27032
3.12559
3.00235
2.90529
2.82563
2.75137
2.67287
2.58359
2.4804
2.37231
2.28046
2.20929
2.14554
2.0826
2.0255
1.97762
1.9289
1.86991
1.80607
1.7453
1.68806
1.63404
1.59162
1.56031
1.53296
1.49748
1.4443
1.38949
1.33969
1.30958
1.29
1.28399
1.32869
1.51959
1.84838
2.27268
2.53363
2.75464
2.82553
2.82476
2.81522
2.78311
2.70248
2.62946
2.58706
2.54747
2.50178
2.4546
2.41095
2.36883
2.32426
2.28365
2.25092
2.22764
2.21031
2.19166
2.1607
2.09778
2.04947
2.01687
1.40744
3.87229
5.61065
5.75299
5.52695
5.26377
4.98094
4.78809
4.71091
5.2452
6.80152
8.5742
9.01051
8.5847
8.15988
7.81776
7.56895
7.34478
7.06511
6.72514
6.40092
6.13487
5.89315
5.66178
5.4372
5.21527
4.99069
4.76498
4.55297
4.36793
4.20568
4.05556
3.90935
3.76339
3.61797
3.47429
3.33076
3.18876
3.05795
2.94835
2.85807
2.78062
2.70815
2.62957
2.53431
2.42643
2.32079
2.24063
2.18206
2.12459
2.06287
2.00201
1.94226
1.8879
1.8318
1.76599
1.70288
1.6568
1.6206
1.58257
1.53945
1.49401
1.45325
1.41213
1.35942
1.32489
1.29549
1.26398
1.24381
1.23655
1.27357
1.43499
1.78773
2.21809
2.46979
2.60514
2.69409
2.69017
2.66426
2.61608
2.57478
2.53027
2.4808
2.4339
2.38944
2.33173
2.27338
2.24577
2.23414
2.22936
2.21976
2.20071
2.16199
2.09056
2.02488
1.97303
1.017
1.69601
4.26779
5.57329
5.62457
5.38962
5.07447
5.23937
6.29273
8.13758
9.21772
9.56985
9.29914
8.83697
8.40049
8.09128
7.82528
7.54497
7.24055
6.9078
6.58426
6.29976
6.04304
5.7992
5.56237
5.32879
5.09733
4.87126
4.65588
4.45955
4.28481
4.1249
3.9719
3.82096
3.6698
3.52072
3.38258
3.25525
3.12572
3.0031
2.90649
2.81944
2.72897
2.64245
2.56388
2.47877
2.38067
2.28436
2.21091
2.16555
2.12219
2.06124
1.98618
1.89995
1.8319
1.79695
1.76548
1.72491
1.67803
1.62804
1.57829
1.52717
1.47316
1.42107
1.37755
1.34154
1.307
1.27216
1.23526
1.21412
1.19912
1.19687
1.24503
1.40995
1.75293
2.10562
2.47209
2.53773
2.51447
2.50706
2.47998
2.44899
2.43623
2.415
2.37412
2.30969
2.24987
2.22759
2.21752
2.20355
2.18095
2.15387
2.11905
2.07227
2.013
1.95547
1.00017
1.04299
2.00175
4.58099
5.45088
5.41601
5.97605
7.65116
9.59456
10.076
9.97406
9.75299
9.42275
9.05284
8.64597
8.31021
8.02443
7.72571
7.40914
7.07532
6.74474
6.44022
6.16478
5.90928
5.66643
5.43043
5.19693
4.96712
4.74563
4.53954
4.35347
4.18501
4.02768
3.87543
3.72396
3.57256
3.42254
3.28649
3.19012
3.09994
2.99238
2.88934
2.78495
2.6789
2.57747
2.47892
2.39965
2.33116
2.25737
2.1892
2.11848
2.03808
1.96284
1.90678
1.86131
1.80685
1.74852
1.69948
1.65254
1.60707
1.56424
1.52674
1.49504
1.46148
1.42308
1.37674
1.32744
1.28269
1.2392
1.21019
1.19458
1.17783
1.16258
1.16077
1.21692
1.38486
1.71972
2.03555
2.3012
2.42872
2.43186
2.40985
2.38225
2.34081
2.3037
2.27955
2.26026
2.2432
2.22453
2.19754
2.16103
2.12505
2.09022
2.04704
2.00264
1.95262
1
1.00058
1.08736
2.38187
4.242
6.39833
9.50678
10.6086
10.9496
10.715
10.3113
9.96032
9.66936
9.34322
8.93806
8.57629
8.28453
7.98735
7.66398
7.32254
6.97566
6.64891
6.35769
6.09433
5.84621
5.60641
5.37158
5.14134
4.91804
4.70669
4.51189
4.33303
4.16558
4.00515
3.84854
3.6916
3.53342
3.38565
3.24548
3.10834
2.97771
2.87574
2.80793
2.73635
2.64421
2.53685
2.42645
2.34853
2.29478
2.22288
2.14079
2.05537
1.98029
1.92179
1.8759
1.82573
1.75931
1.69909
1.65541
1.61378
1.57632
1.54346
1.50409
1.4514
1.40143
1.36297
1.32616
1.28848
1.25667
1.22992
1.20517
1.18344
1.15657
1.12811
1.09713
1.09694
1.15211
1.33258
1.6415
1.9647
2.18927
2.32815
2.34102
2.32887
2.30141
2.27195
2.23718
2.19959
2.1623
2.12642
2.10321
2.08517
2.06819
2.0472
2.00339
2.01502
1
1
1.00195
1.15004
2.82327
9.69181
12.4759
11.7482
11.213
10.8198
10.4055
10.0521
9.81306
9.51183
9.09961
8.72223
8.42009
8.0813
7.71746
7.35779
7.00163
6.6636
6.36196
6.09111
5.83632
5.58914
5.34587
5.10644
4.87569
4.66111
4.46684
4.28976
4.12335
3.9628
3.80646
3.65313
3.50203
3.35733
3.2302
3.12555
3.0319
2.92856
2.81541
2.70042
2.60674
2.5455
2.48462
2.40289
2.29706
2.19541
2.13366
2.09578
2.04684
1.98478
1.90947
1.83418
1.76104
1.69249
1.66131
1.64671
1.62383
1.58667
1.53383
1.46651
1.40122
1.36387
1.34613
1.32632
1.30198
1.27059
1.23205
1.19687
1.16365
1.12562
1.08669
1.06341
1.05172
1.05927
1.12189
1.32254
1.60847
1.93982
2.0778
2.2054
2.25833
2.25477
2.24272
2.2085
2.15246
2.11277
2.09133
2.08419
2.08122
2.11319
2.18846
2.51474
1
1
1.00001
1.00426
3.52523
11.3311
12.3558
11.5052
10.9834
10.7433
10.5495
10.313
10.0708
9.768
9.36113
8.94464
8.58889
8.24199
7.86636
7.48997
7.1199
6.76945
6.45689
6.17595
5.91309
5.65826
5.40558
5.15541
4.91628
4.69798
4.50268
4.32543
4.15935
3.99741
3.83458
3.67325
3.52357
3.38934
3.26192
3.1379
3.02216
2.91244
2.80189
2.70727
2.62728
2.5424
2.45247
2.36641
2.28102
2.2092
2.14548
2.07674
2.01577
1.95812
1.89374
1.82024
1.75687
1.71588
1.6813
1.64039
1.60039
1.56109
1.51521
1.46173
1.41295
1.37452
1.33963
1.31031
1.28214
1.25394
1.22504
1.19593
1.16349
1.12542
1.08795
1.06311
1.04496
1.03801
1.02601
1.03528
1.08984
1.27653
1.56558
1.8695
2.0477
2.10353
2.1526
2.14173
2.12981
2.13357
2.16255
2.25388
2.42813
2.697
3.00571
3.44755
1
1
1
1.00008
4.88082
11.1309
11.6002
11.3127
11.1226
10.9222
10.7031
10.4318
10.1282
9.7735
9.36609
8.94289
8.57104
8.24276
7.87261
7.49791
7.14044
6.81248
6.51092
6.2278
5.95644
5.68935
5.42371
5.16677
4.93102
4.72081
4.53119
4.35472
4.18504
4.01762
3.85122
3.68928
3.53652
3.39482
3.2639
3.1437
3.03187
2.92545
2.82524
2.7293
2.63115
2.53351
2.4439
2.36376
2.29234
2.22486
2.15346
2.08104
2.01294
1.9483
1.88514
1.8246
1.77414
1.73004
1.68328
1.63382
1.59084
1.55437
1.51774
1.47532
1.42645
1.37785
1.34039
1.31209
1.28213
1.25349
1.23479
1.21145
1.18215
1.15194
1.12426
1.09787
1.0732
1.04928
1.01905
0.99021
0.972199
0.986695
1.07205
1.26105
1.54587
1.82841
2.02663
2.1016
2.22819
2.42791
2.70198
2.972
3.25193
3.50951
3.65279
3.78111
1
1
1
1
5.40418
10.8264
11.2641
11.2228
11.171
11.04
10.9045
10.72
10.4479
10.0756
9.63478
9.18286
8.76913
8.3607
7.93567
7.54418
7.18986
6.86653
6.56166
6.26901
5.98506
5.70547
5.4308
5.17139
4.93874
4.73272
4.54546
4.36879
4.19693
4.02655
3.85761
3.69311
3.53684
3.39258
3.26304
3.14816
3.04471
2.94727
2.84775
2.74085
2.63014
2.52474
2.4345
2.36086
2.29562
2.23185
2.16626
2.09547
2.01742
1.93962
1.87455
1.82425
1.78006
1.7357
1.69048
1.64347
1.59018
1.5351
1.49193
1.46297
1.43578
1.39993
1.35034
1.30217
1.27377
1.25231
1.22391
1.18754
1.153
1.12405
1.10037
1.07797
1.05469
1.03086
1.00391
0.973177
0.940688
0.91895
0.917492
0.942373
1.06169
1.31487
1.71366
2.2434
2.75191
3.2124
3.66329
4.09058
4.42151
4.54763
4.49461
4.29148
)
;

boundaryField
{
    inlet
    {
        type            fixedValue;
        value           uniform 1;
    }
    outlet
    {
        type            zeroGradient;
    }
    bottom
    {
        type            symmetryPlane;
    }
    top
    {
        type            symmetryPlane;
    }
    obstacle
    {
        type            zeroGradient;
    }
    defaultFaces
    {
        type            empty;
    }
}


// ************************************************************************* //
