/*--------------------------------*- C++ -*----------------------------------*\
  =========                 |
  \\      /  F ield         | OpenFOAM: The Open Source CFD Toolbox
   \\    /   O peration     | Website:  https://openfoam.org
    \\  /    A nd           | Version:  7
     \\/     M anipulation  |
\*---------------------------------------------------------------------------*/
FoamFile
{
    version     2.0;
    format      ascii;
    class       volVectorField;
    location    "2.8";
    object      U;
}
// * * * * * * * * * * * * * * * * * * * * * * * * * * * * * * * * * * * * * //

dimensions      [0 1 -1 0 0 0 0];

internalField   nonuniform List<vector> 
4032
(
(3 -1.22623e-16 0)
(3 -1.25872e-16 0)
(3 -5.64067e-17 0)
(3 3.90198e-16 0)
(3 4.76064e-16 0)
(3 4.12428e-16 0)
(3 1.0261e-16 0)
(3 -2.02046e-16 0)
(3 -3.8278e-16 0)
(3 -2.76632e-16 0)
(3 -2.19093e-16 0)
(2.99003 -0.00045033 0)
(1.07745 0.0165978 0)
(0.715137 0.0159356 0)
(0.665775 0.0212422 0)
(0.610443 0.0236817 0)
(0.553294 0.0256087 0)
(0.493571 0.0274387 0)
(0.430948 0.0293962 0)
(0.364704 0.0316571 0)
(0.294311 0.034323 0)
(0.218077 0.0379534 0)
(0.135358 0.0404489 0)
(0.0500418 0.0451029 0)
(3 -1.28354e-16 0)
(3 -3.24043e-17 0)
(3 -3.35852e-16 0)
(3 -8.26752e-17 0)
(3 -2.02784e-16 0)
(3 -2.09997e-16 0)
(3 -3.12217e-17 0)
(3 -7.1357e-16 0)
(3 -1.34862e-15 0)
(3 -6.93818e-16 0)
(3 8.56134e-17 0)
(2.99932 0.000702663 0)
(1.09975 0.0723018 0)
(0.710728 0.0613266 0)
(0.655578 0.0672433 0)
(0.598773 0.0731105 0)
(0.540503 0.0780328 0)
(0.480412 0.0834015 0)
(0.417946 0.0894828 0)
(0.352438 0.0968103 0)
(0.28339 0.105359 0)
(0.209462 0.116985 0)
(0.12914 0.12506 0)
(0.0477412 0.138344 0)
(3 1.21117e-16 0)
(3 -4.94473e-17 0)
(3 -4.3498e-16 0)
(3 -7.52554e-16 0)
(3 -2.21605e-16 0)
(3 1.53125e-16 0)
(3 5.73427e-17 0)
(3 -7.75474e-16 0)
(3 -1.52151e-15 0)
(3 -1.43926e-15 0)
(3 -6.71673e-16 0)
(3.00002 4.89946e-06 0)
(1.16718 0.125961 0)
(0.721679 0.106653 0)
(0.662062 0.115499 0)
(0.603732 0.124583 0)
(0.543811 0.132358 0)
(0.482592 0.140848 0)
(0.419221 0.150341 0)
(0.353004 0.161858 0)
(0.28324 0.17507 0)
(0.209381 0.1937 0)
(0.128095 0.206561 0)
(0.0478934 0.227083 0)
(3 1.68733e-18 0)
(3 -9.67779e-17 0)
(3 1.89899e-16 0)
(3 3.31588e-16 0)
(3 7.29561e-16 0)
(3 1.12724e-15 0)
(3 9.38673e-16 0)
(3 1.10413e-16 0)
(3 -2.17298e-16 0)
(3 -1.44529e-15 0)
(3 -1.56044e-15 0)
(3 -1.06535e-09 0)
(1.27658 0.177925 0)
(0.735799 0.154463 0)
(0.669601 0.164949 0)
(0.611448 0.176838 0)
(0.551343 0.187324 0)
(0.490163 0.199325 0)
(0.426153 0.213007 0)
(0.358502 0.229864 0)
(0.28647 0.248214 0)
(0.211654 0.274061 0)
(0.128539 0.292143 0)
(0.0468047 0.317659 0)
(3 -2.56053e-16 0)
(3 -2.82558e-16 0)
(3 9.55996e-18 0)
(3 5.67409e-16 0)
(3 9.12756e-16 0)
(3 1.16069e-15 0)
(3 1.1564e-15 0)
(3 8.19146e-16 0)
(3 5.06829e-16 0)
(3 7.53603e-16 0)
(3 1.4001e-16 0)
(3 -9.63252e-12 0)
(1.44037 0.229197 0)
(0.754948 0.206983 0)
(0.677726 0.215324 0)
(0.621909 0.228737 0)
(0.564467 0.241295 0)
(0.507022 0.256745 0)
(0.446829 0.275003 0)
(0.382914 0.298029 0)
(0.31268 0.32182 0)
(0.23838 0.355453 0)
(0.148839 0.382499 0)
(0.0568488 0.416059 0)
(3 -1.24978e-18 0)
(3 1.85285e-16 0)
(3 1.74954e-16 0)
(3 5.11712e-16 0)
(3 6.02e-16 0)
(3 5.46493e-16 0)
(3 3.6561e-16 0)
(3 1.42171e-16 0)
(3 6.05578e-16 0)
(3 1.38778e-15 0)
(3 1.52885e-15 0)
(3 -2.98423e-13 0)
(1.67763 0.27763 0)
(0.783171 0.267704 0)
(0.684025 0.26529 0)
(0.628261 0.279063 0)
(0.571898 0.293119 0)
(0.517957 0.311751 0)
(0.462431 0.334719 0)
(0.403793 0.36571 0)
(0.334072 0.39975 0)
(0.256917 0.447676 0)
(0.160882 0.493407 0)
(0.0552899 0.535817 0)
(3 2.15325e-16 0)
(3 5.14573e-16 0)
(3 4.29733e-16 0)
(3 8.81695e-17 0)
(3 -1.68336e-16 0)
(3 -9.12068e-18 0)
(3 -3.74611e-17 0)
(3 8.03538e-18 0)
(3 6.30212e-17 0)
(3 3.15136e-16 0)
(3 6.60951e-16 0)
(3 -2.85353e-15 0)
(2.01067 0.325041 0)
(0.825943 0.345155 0)
(0.693949 0.326421 0)
(0.641365 0.336005 0)
(0.588801 0.348346 0)
(0.538929 0.36739 0)
(0.487795 0.393061 0)
(0.436654 0.431363 0)
(0.376645 0.478586 0)
(0.312026 0.538811 0)
(0.225815 0.603441 0)
(0.0985461 0.674858 0)
(3 2.81209e-17 0)
(3 -1.96651e-16 0)
(3 -3.75048e-16 0)
(3 -8.05892e-16 0)
(3 -1.01679e-15 0)
(3 -8.96829e-16 0)
(3 -3.68913e-16 0)
(3 -1.39288e-16 0)
(3 -3.29054e-16 0)
(3 -1.56427e-16 0)
(3 5.22066e-17 0)
(3 2.47354e-16 0)
(2.50085 0.315938 0)
(0.931672 0.432735 0)
(0.761406 0.374784 0)
(0.709872 0.382127 0)
(0.652573 0.397328 0)
(0.598643 0.41937 0)
(0.545561 0.449104 0)
(0.49432 0.491666 0)
(0.443801 0.547364 0)
(0.382276 0.632508 0)
(0.268754 0.76151 0)
(0.148521 0.932311 0)
(3 -1.05059e-17 0)
(3 2.49106e-20 0)
(3 3.60992e-17 0)
(3 7.2096e-17 0)
(3 1.6964e-16 0)
(3 -4.18434e-16 0)
(3 -6.49683e-16 0)
(3 -7.08219e-16 0)
(3 -6.9362e-16 0)
(3 -1.19825e-15 0)
(3 -9.34019e-16 0)
(3 -1.21114e-15 0)
(3.01398 0.0984111 0)
(1.13358 0.451869 0)
(0.852303 0.408651 0)
(0.802257 0.426518 0)
(0.742664 0.446816 0)
(0.685239 0.470305 0)
(0.630744 0.502387 0)
(0.577341 0.546871 0)
(0.530608 0.616141 0)
(0.489534 0.739289 0)
(0.457929 0.920336 0)
(0.574459 1.20486 0)
(3 2.66638e-17 0)
(3 2.98484e-16 0)
(3 5.3282e-16 0)
(3 3.91557e-16 0)
(3 3.36088e-16 0)
(3 1.23987e-16 0)
(3 -8.27531e-16 0)
(3 -1.37494e-15 0)
(3 -1.10704e-15 0)
(3 -1.28504e-15 0)
(3 -1.42596e-15 0)
(3 -2.08204e-15 0)
(3.02339 0.00334183 0)
(1.31362 0.429147 0)
(0.873036 0.471611 0)
(0.820776 0.494183 0)
(0.770618 0.513693 0)
(0.725941 0.537159 0)
(0.689194 0.5712 0)
(0.6506 0.615003 0)
(0.627199 0.687995 0)
(0.620529 0.812973 0)
(0.68045 0.960467 0)
(0.967272 1.13284 0)
(3 -2.49468e-16 0)
(3 -2.24982e-16 0)
(3 -1.72759e-16 0)
(3 -2.70729e-16 0)
(3 -1.46676e-16 0)
(3 -1.27343e-16 0)
(3 -2.25702e-16 0)
(3 -8.8454e-16 0)
(3 -9.72328e-16 0)
(3 -5.17237e-16 0)
(3 -4.52851e-16 0)
(3 -8.89174e-16 0)
(3.00039 -7.97517e-06 0)
(1.66729 0.464488 0)
(0.875468 0.513443 0)
(0.822883 0.536277 0)
(0.794532 0.559762 0)
(0.767899 0.579886 0)
(0.749521 0.613881 0)
(0.730526 0.657276 0)
(0.73157 0.727536 0)
(0.75437 0.837039 0)
(0.872199 0.959627 0)
(1.18382 1.06646 0)
(3 -6.66114e-17 0)
(3 -2.86997e-16 0)
(3 -1.0975e-16 0)
(3 4.1205e-16 0)
(3 5.67556e-16 0)
(3 6.35768e-16 0)
(3 6.79295e-16 0)
(3 6.14837e-16 0)
(3 2.05522e-16 0)
(3 8.66956e-17 0)
(3 -5.68843e-16 0)
(3 -6.14001e-16 0)
(3.00001 -4.83151e-06 0)
(2.36005 0.447173 0)
(0.979111 0.599581 0)
(0.863424 0.552427 0)
(0.851402 0.579374 0)
(0.828552 0.607835 0)
(0.816891 0.646286 0)
(0.812459 0.691925 0)
(0.828359 0.756511 0)
(0.876327 0.842747 0)
(1.01403 0.937844 0)
(1.27552 1.00094 0)
(3 4.78976e-17 0)
(3 -2.48471e-16 0)
(3 -1.26618e-16 0)
(3 2.5466e-16 0)
(3 7.11651e-17 0)
(3 4.18527e-16 0)
(3 9.45183e-16 0)
(3 1.4611e-15 0)
(3 1.38797e-15 0)
(3 1.48451e-16 0)
(3 -8.06647e-16 0)
(3 -9.45688e-16 0)
(3 -1.11226e-06 0)
(3.08627 0.097533 0)
(1.25682 0.601754 0)
(0.952894 0.568766 0)
(0.934346 0.615795 0)
(0.908677 0.641725 0)
(0.892434 0.675772 0)
(0.893347 0.718463 0)
(0.914816 0.774022 0)
(0.979328 0.843754 0)
(1.11729 0.914122 0)
(1.32831 0.955026 0)
(3 -1.72106e-16 0)
(3 -2.83885e-17 0)
(3 -4.94537e-18 0)
(3 2.44925e-18 0)
(3 -1.96824e-16 0)
(3 8.18423e-17 0)
(3 3.78733e-16 0)
(3 7.11313e-16 0)
(3 5.86932e-16 0)
(3 5.4719e-16 0)
(3 1.15639e-16 0)
(3 -7.60123e-16 0)
(3 -1.04787e-07 0)
(3.02084 0.00061783 0)
(1.53735 0.583201 0)
(0.978147 0.657609 0)
(0.94692 0.667507 0)
(0.934866 0.686997 0)
(0.938862 0.714181 0)
(0.954326 0.747726 0)
(0.988461 0.788232 0)
(1.0599 0.836578 0)
(1.18431 0.88286 0)
(1.34892 0.906543 0)
(3 2.89942e-18 0)
(3 3.11306e-17 0)
(3 -2.27888e-16 0)
(3 -2.98097e-16 0)
(3 5.02053e-16 0)
(3 5.14394e-16 0)
(3 3.66825e-16 0)
(3 5.83964e-16 0)
(3 1.05453e-15 0)
(3 1.25638e-15 0)
(3 3.74047e-16 0)
(3 -4.61542e-16 0)
(3 -3.16318e-09 0)
(3.00023 -6.6169e-06 0)
(2.30362 0.521351 0)
(1.08106 0.726698 0)
(0.987734 0.693686 0)
(0.976904 0.704866 0)
(0.985306 0.725361 0)
(1.00792 0.757209 0)
(1.05082 0.792981 0)
(1.12557 0.832147 0)
(1.23533 0.864722 0)
(1.3705 0.879687 0)
(3 1.078e-16 0)
(3 1.18812e-16 0)
(3 -9.84036e-17 0)
(3 6.40366e-17 0)
(3 4.88108e-16 0)
(3 7.19432e-16 0)
(3 9.30497e-16 0)
(3 9.076e-16 0)
(3 1.30766e-15 0)
(3 9.75332e-16 0)
(3 3.61141e-16 0)
(3 2.8809e-16 0)
(3 -7.44157e-12 0)
(3.00002 -9.96732e-06 0)
(3.06908 0.0999372 0)
(1.4143 0.722003 0)
(1.08357 0.715129 0)
(1.05669 0.716432 0)
(1.05005 0.739399 0)
(1.06573 0.763173 0)
(1.1055 0.790959 0)
(1.17468 0.820352 0)
(1.2688 0.842098 0)
(1.38262 0.850448 0)
(3 -1.68563e-16 0)
(3 3.04182e-17 0)
(3 -4.13585e-18 0)
(3 -2.53807e-16 0)
(3 -3.69308e-16 0)
(3 -1.30516e-16 0)
(3 -3.10524e-17 0)
(3 -1.40979e-16 0)
(3 -8.67657e-17 0)
(3 -6.86315e-17 0)
(3 8.99627e-17 0)
(3 3.08334e-16 0)
(3 -6.15415e-15 0)
(3 -2.0868e-06 0)
(3.0161 0.00108375 0)
(1.90659 0.671284 0)
(1.13108 0.791313 0)
(1.10077 0.784012 0)
(1.11025 0.780447 0)
(1.12385 0.787803 0)
(1.15759 0.802373 0)
(1.21938 0.820515 0)
(1.30154 0.834751 0)
(1.39777 0.839701 0)
(3 5.33312e-17 0)
(3 -2.54821e-16 0)
(3 -5.46793e-16 0)
(3 -4.51854e-16 0)
(3 -4.03658e-16 0)
(3 -6.24175e-16 0)
(3 -7.96533e-16 0)
(3 -1.08272e-15 0)
(3 -9.63852e-16 0)
(3 -7.26956e-16 0)
(3 -1.77771e-16 0)
(3 5.57781e-16 0)
(3 7.3873e-16 0)
(3 -1.69444e-07 0)
(3.00013 7.5059e-06 0)
(2.92757 0.257072 0)
(1.35407 0.783443 0)
(1.16232 0.783865 0)
(1.18664 0.788931 0)
(1.19508 0.798168 0)
(1.22143 0.806731 0)
(1.27107 0.815993 0)
(1.33863 0.824828 0)
(1.41872 0.827875 0)
(3 2.51564e-16 0)
(3 2.59727e-16 0)
(3 3.26275e-18 0)
(3 8.36418e-17 0)
(3 3.81832e-16 0)
(3 2.83129e-16 0)
(3 -2.68299e-16 0)
(3 -6.41648e-16 0)
(3 -7.59702e-16 0)
(3 -5.49092e-16 0)
(3 2.19647e-16 0)
(3 9.11643e-16 0)
(3 8.49561e-16 0)
(3 -8.71999e-10 0)
(3.00001 -4.09549e-06 0)
(3.0391 0.00695745 0)
(1.73959 0.733106 0)
(1.1912 0.830066 0)
(1.20143 0.827378 0)
(1.22753 0.833065 0)
(1.26465 0.839218 0)
(1.31183 0.843446 0)
(1.36921 0.84488 0)
(1.43715 0.840595 0)
(3 1.8371e-16 0)
(3 4.65563e-16 0)
(3 6.8311e-16 0)
(3 6.1361e-16 0)
(3 1.00883e-16 0)
(3 -1.01495e-16 0)
(3 -4.03198e-16 0)
(3 -7.84062e-16 0)
(3 -8.76405e-16 0)
(3 -3.24344e-16 0)
(3 4.18747e-16 0)
(3 6.00761e-16 0)
(3 7.72876e-16 0)
(3 -1.29267e-12 0)
(3 -8.56669e-07 0)
(3.00062 0.000110591 0)
(2.77783 0.389341 0)
(1.35934 0.852435 0)
(1.23641 0.817905 0)
(1.27337 0.82547 0)
(1.31005 0.835915 0)
(1.3569 0.84104 0)
(1.40802 0.841011 0)
(1.46774 0.834742 0)
(3 -9.10728e-17 0)
(3 5.63737e-17 0)
(3 4.54982e-16 0)
(3 4.24867e-16 0)
(3 -3.26954e-16 0)
(3 -4.41442e-16 0)
(3 -3.12181e-16 0)
(3 -3.45809e-17 0)
(3 7.33642e-17 0)
(3 -1.89458e-16 0)
(3 -1.10038e-16 0)
(3 -2.26529e-16 0)
(3 -2.15337e-16 0)
(3 -1.37913e-15 0)
(3 -7.00595e-08 0)
(3 1.50941e-08 0)
(3.05255 0.0197048 0)
(1.78666 0.768691 0)
(1.27333 0.859063 0)
(1.29203 0.857031 0)
(1.33156 0.859925 0)
(1.37681 0.862524 0)
(1.42809 0.861307 0)
(1.48488 0.855027 0)
(3 6.43589e-17 0)
(3 6.5927e-17 0)
(3 -3.65902e-17 0)
(3 -4.91359e-16 0)
(3 -2.68996e-16 0)
(3 5.09607e-19 0)
(3 -4.47522e-18 0)
(3 4.62063e-16 0)
(3 6.10976e-16 0)
(3 2.74753e-16 0)
(3 -1.19431e-17 0)
(3 -2.62107e-16 0)
(3 -7.09025e-16 0)
(3 -1.53573e-15 0)
(3 -4.02856e-10 0)
(3 -2.71194e-08 0)
(3.00146 0.000492721 0)
(2.76009 0.404329 0)
(1.45705 0.898363 0)
(1.32107 0.85546 0)
(1.36507 0.856051 0)
(1.40377 0.859031 0)
(1.45286 0.85879 0)
(1.50673 0.855217 0)
(3 8.80754e-18 0)
(3 -6.12868e-19 0)
(3 -2.93186e-16 0)
(3 -4.6445e-16 0)
(3 -2.42438e-16 0)
(3 7.36807e-17 0)
(3 2.52011e-16 0)
(3 -9.5306e-17 0)
(3 -7.42399e-17 0)
(3 1.90092e-16 0)
(3 -1.03336e-16 0)
(3 -2.55363e-16 0)
(3 -6.32147e-16 0)
(3 -1.09965e-15 0)
(3 -8.84e-13 0)
(3 -5.39774e-09 0)
(3 1.03703e-06 0)
(3.04033 0.0237158 0)
(1.96506 0.775712 0)
(1.37546 0.891894 0)
(1.38968 0.885474 0)
(1.42502 0.881671 0)
(1.46615 0.877692 0)
(1.51249 0.873067 0)
(3 -7.84494e-17 0)
(3 -3.18914e-16 0)
(3 -4.14911e-16 0)
(3 -1.15682e-16 0)
(3 -2.60143e-16 0)
(3 -2.83066e-16 0)
(3 5.56413e-18 0)
(3 -3.10102e-16 0)
(3 -2.56971e-16 0)
(3 1.40925e-16 0)
(3 -1.1755e-17 0)
(3 -3.96943e-16 0)
(3 -1.1369e-15 0)
(3 -1.17057e-15 0)
(3 -4.32455e-16 0)
(3 -4.69947e-10 0)
(3 -3.19407e-10 0)
(3.00105 0.00076742 0)
(2.85078 0.308042 0)
(1.65024 0.907829 0)
(1.41644 0.897374 0)
(1.46001 0.890543 0)
(1.48983 0.88385 0)
(1.5286 0.874666 0)
(3 -2.47948e-16 0)
(3 -2.32596e-16 0)
(3 6.04794e-18 0)
(3 3.79156e-17 0)
(3 -4.51335e-16 0)
(3 -8.44691e-16 0)
(3 -6.71087e-16 0)
(3 -1.71377e-16 0)
(3 -1.43537e-16 0)
(3 -1.09152e-16 0)
(3 1.10749e-16 0)
(3 -9.73092e-16 0)
(3 -1.23245e-15 0)
(3 -1.00247e-15 0)
(3 -8.39639e-17 0)
(3 -6.44595e-12 0)
(3 -1.00339e-10 0)
(3 2.13927e-06 0)
(3.01659 0.0178607 0)
(2.32461 0.698261 0)
(1.50437 0.9324 0)
(1.48716 0.923274 0)
(1.51576 0.905995 0)
(1.54718 0.890864 0)
(3 -1.05189e-16 0)
(3 2.66704e-16 0)
(3 3.6929e-16 0)
(3 1.669e-16 0)
(3 -1.44418e-16 0)
(3 -3.81859e-16 0)
(3 -3.31855e-16 0)
(3 -2.56262e-16 0)
(3 -3.72419e-16 0)
(3 -3.91923e-16 0)
(3 -4.39147e-16 0)
(3 -7.14019e-16 0)
(3 -9.5795e-16 0)
(3 -6.57128e-16 0)
(3 8.32879e-17 0)
(3 -1.72802e-14 0)
(3 -1.09456e-11 0)
(3 5.40533e-10 0)
(3.00019 0.000516451 0)
(2.98609 0.145461 0)
(1.91481 0.846528 0)
(1.52836 0.933395 0)
(1.55623 0.920405 0)
(1.5838 0.90147 0)
(3 5.96711e-16 0)
(3 4.49765e-16 0)
(3 5.11395e-16 0)
(3 5.0278e-16 0)
(3 7.18114e-16 0)
(3 3.03215e-16 0)
(3 -9.60574e-18 0)
(3 -1.02087e-16 0)
(3 -1.50492e-16 0)
(3 -5.11052e-16 0)
(3 -6.82227e-16 0)
(3 -4.37038e-16 0)
(3 -5.53155e-16 0)
(3 -1.91213e-16 0)
(3 1.2105e-15 0)
(3 1.48979e-15 0)
(3 -5.87502e-13 0)
(3 -5.30437e-13 0)
(3 1.09672e-06 0)
(3.00371 0.00799221 0)
(2.69119 0.436868 0)
(1.74178 0.933915 0)
(1.56992 0.945311 0)
(1.60406 0.930884 0)
(3 -6.62007e-17 0)
(3 -1.95095e-16 0)
(3 -2.66909e-16 0)
(3 -1.62874e-16 0)
(3 1.09379e-16 0)
(3 2.99703e-16 0)
(3 2.68226e-16 0)
(3 -8.15366e-18 0)
(3 -4.5544e-16 0)
(3 -1.03118e-15 0)
(3 -1.15789e-15 0)
(3 -7.62213e-16 0)
(3 -5.40628e-16 0)
(3 3.64691e-16 0)
(3 8.30263e-16 0)
(3 1.07122e-15 0)
(3 -5.85686e-15 0)
(3 -1.61879e-13 0)
(3 4.45034e-10 0)
(3 9.6777e-05 0)
(3.00337 0.0416767 0)
(2.34247 0.696953 0)
(1.6517 0.961703 0)
(1.62152 0.955451 0)
(3 -4.96923e-16 0)
(3 -1.72545e-16 0)
(3 -2.48703e-16 0)
(3 -2.11264e-16 0)
(3 -4.16981e-16 0)
(3 -3.42536e-16 0)
(3 -3.81635e-16 0)
(3 -6.06887e-16 0)
(3 -1.08387e-15 0)
(3 -1.23555e-15 0)
(3 -1.17537e-15 0)
(3 -7.32061e-16 0)
(3 -1.07172e-16 0)
(3 8.92711e-17 0)
(3 -2.84134e-16 0)
(3 2.27006e-17 0)
(3 1.69874e-15 0)
(3 -1.77466e-14 0)
(3 6.05778e-14 0)
(3 1.05206e-07 0)
(3.00008 0.00158439 0)
(2.94912 0.159871 0)
(2.06432 0.821925 0)
(1.6792 0.959355 0)
(3 -5.44686e-17 0)
(3 -1.81145e-16 0)
(3 -8.23668e-17 0)
(3 -1.85036e-16 0)
(3 3.11125e-16 0)
(3 2.66831e-16 0)
(3 -1.1494e-16 0)
(3 -1.96059e-16 0)
(3 -1.99999e-16 0)
(3 -3.51837e-16 0)
(3 -4.55149e-17 0)
(3 2.1265e-16 0)
(3 6.0685e-16 0)
(3 7.99437e-16 0)
(3 6.7488e-16 0)
(3 6.16324e-16 0)
(3 1.00022e-15 0)
(3 -1.42762e-16 0)
(3 2.66979e-16 0)
(3 5.0859e-11 0)
(3 5.6858e-06 0)
(3.00041 0.00975425 0)
(2.76141 0.357919 0)
(1.92519 0.894804 0)
(3 6.15055e-18 0)
(3 2.16728e-16 0)
(3 -5.10296e-18 0)
(3 -2.93303e-16 0)
(3 -5.0988e-17 0)
(3 -2.38618e-17 0)
(3 -6.29088e-18 0)
(3 2.55657e-16 0)
(3 3.52146e-16 0)
(3 5.04289e-16 0)
(3 6.7474e-16 0)
(3 3.40068e-16 0)
(3 3.89774e-16 0)
(3 3.68308e-16 0)
(3 2.26843e-16 0)
(3 3.12151e-16 0)
(3 1.5561e-16 0)
(3 3.39818e-16 0)
(3 2.64699e-16 0)
(3 6.24075e-15 0)
(3 4.43283e-09 0)
(2.99998 0.00011549 0)
(2.99581 0.031707 0)
(2.52958 0.545924 0)
(3 1.34359e-16 0)
(3 2.83793e-16 0)
(3 9.93663e-17 0)
(3 -1.28409e-16 0)
(3 -3.35821e-16 0)
(3 -2.39666e-16 0)
(3 -3.1169e-16 0)
(3 -8.90436e-18 0)
(3 4.31221e-16 0)
(3 7.18485e-16 0)
(3 8.69353e-16 0)
(3 8.63057e-16 0)
(3 1.10427e-15 0)
(3 9.23592e-16 0)
(3 3.79939e-17 0)
(3 8.84802e-17 0)
(3 -4.45471e-17 0)
(3 3.31184e-17 0)
(3 1.61239e-16 0)
(3 1.03774e-15 0)
(3 1.22633e-12 0)
(3 1.54706e-07 0)
(2.99986 0.000938369 0)
(2.9708 0.0784532 0)
(3 -8.31733e-18 0)
(3 4.95149e-17 0)
(3 2.96957e-17 0)
(3 1.79957e-16 0)
(3 1.92669e-16 0)
(3 -2.21485e-16 0)
(3 -2.50625e-16 0)
(3 -6.2264e-16 0)
(3 -3.59995e-16 0)
(3 -4.86336e-17 0)
(3 -1.10742e-16 0)
(3 7.28907e-16 0)
(3 1.13333e-15 0)
(3 7.00262e-16 0)
(3 2.01368e-16 0)
(3 -7.20292e-17 0)
(3 -7.95205e-17 0)
(3 2.36252e-16 0)
(3 1.09782e-15 0)
(3 1.86078e-15 0)
(3 2.27653e-15 0)
(3 9.72106e-11 0)
(3 2.52255e-06 0)
(2.99946 0.00376142 0)
(3 1.19702e-17 0)
(3 6.45357e-17 0)
(3 2.60908e-16 0)
(3 3.60441e-16 0)
(3 3.7555e-17 0)
(3 -8.19445e-16 0)
(3 -8.30996e-16 0)
(3 -5.46072e-16 0)
(3 -6.19091e-16 0)
(3 -4.71075e-16 0)
(3 -6.58889e-16 0)
(3 -1.19696e-15 0)
(3 -1.52048e-15 0)
(3 -1.01683e-15 0)
(3 9.93243e-17 0)
(3 2.68712e-16 0)
(3 8.02938e-17 0)
(3 -1.54185e-16 0)
(3 6.03329e-16 0)
(3 1.48761e-15 0)
(3 1.46523e-15 0)
(3 1.04533e-14 0)
(3 2.51103e-09 0)
(2.99999 2.08952e-05 0)
(3 -1.45661e-17 0)
(3 -1.52939e-17 0)
(3 7.83688e-17 0)
(3 1.37764e-16 0)
(3 -1.78075e-16 0)
(3 -1.37725e-16 0)
(3 1.97362e-16 0)
(3 5.20593e-16 0)
(3 7.90109e-16 0)
(3 5.03443e-16 0)
(3 -1.04563e-16 0)
(3 -9.79603e-16 0)
(3 -1.67595e-15 0)
(3 -1.28909e-15 0)
(3 -3.2669e-18 0)
(3 5.01283e-16 0)
(3 -4.41856e-17 0)
(3 -5.6947e-16 0)
(3 -4.12306e-16 0)
(3 -1.83924e-16 0)
(3 4.69636e-17 0)
(3 -9.14458e-16 0)
(3 4.54231e-13 0)
(3 2.65322e-08 0)
(3 2.22304e-18 0)
(3 4.07153e-17 0)
(3 1.68701e-16 0)
(3 2.60571e-16 0)
(3 3.85714e-16 0)
(3 6.14609e-16 0)
(3 7.55708e-16 0)
(3 4.85411e-16 0)
(3 2.37636e-16 0)
(3 2.29007e-17 0)
(3 -1.11449e-16 0)
(3 8.13088e-18 0)
(3 6.2972e-16 0)
(3 -1.08942e-15 0)
(3 -1.82762e-15 0)
(3 -1.30249e-15 0)
(3 5.95469e-16 0)
(3 1.35654e-15 0)
(3 1.01876e-15 0)
(3 -9.40985e-16 0)
(3 -1.90433e-15 0)
(3 -1.81326e-15 0)
(3 -1.74125e-15 0)
(3 8.61546e-12 0)
(3 -5.72207e-17 0)
(3 4.95302e-17 0)
(3 -2.9721e-16 0)
(3 -2.72848e-16 0)
(3 4.9091e-17 0)
(3 2.42365e-18 0)
(3 -4.2543e-16 0)
(3 -7.40869e-16 0)
(3 -1.31766e-15 0)
(3 -1.43905e-15 0)
(3 -9.28404e-16 0)
(3 -3.72111e-16 0)
(3 4.24078e-16 0)
(3 6.62701e-17 0)
(3 -4.06489e-16 0)
(3 -9.97628e-17 0)
(3 -3.56204e-17 0)
(3 -1.64526e-16 0)
(3 -2.91453e-16 0)
(3 -8.65295e-16 0)
(3 -1.67062e-15 0)
(3 -2.52828e-15 0)
(3 -2.73486e-15 0)
(3 -1.00583e-15 0)
(3 -2.13075e-16 0)
(3 -6.63325e-16 0)
(3 -5.93848e-16 0)
(3 -2.76291e-16 0)
(3 4.10541e-17 0)
(3 2.8756e-16 0)
(3 2.8238e-16 0)
(3 4.59651e-16 0)
(3 3.29435e-16 0)
(3 2.87142e-16 0)
(3 1.64863e-16 0)
(3 1.91762e-16 0)
(3 6.1315e-17 0)
(3 3.61778e-16 0)
(3 4.78766e-16 0)
(3 -1.66065e-17 0)
(3 -6.9401e-16 0)
(3 -7.81946e-16 0)
(3 -1.08337e-15 0)
(3 -8.22568e-16 0)
(3 -8.08406e-16 0)
(3 -1.0097e-15 0)
(3 -9.42919e-16 0)
(3 -4.92386e-16 0)
(3 4.29706e-17 0)
(3 -7.07914e-16 0)
(3 -7.12308e-16 0)
(3 -7.48672e-16 0)
(3 -5.96762e-16 0)
(3 -2.01208e-16 0)
(3 7.44826e-16 0)
(3 1.28869e-15 0)
(3 8.62232e-16 0)
(3 6.25017e-16 0)
(3 4.34012e-16 0)
(3 6.59217e-16 0)
(3 8.23016e-16 0)
(3 7.15427e-16 0)
(3 8.09397e-16 0)
(3 3.63309e-17 0)
(3 1.9651e-16 0)
(3 2.45154e-16 0)
(3 -1.33701e-15 0)
(3 -1.20877e-15 0)
(3 -3.54247e-16 0)
(3 3.66887e-16 0)
(3 5.17669e-16 0)
(3 8.35225e-17 0)
(3 2.50716e-17 0)
(3 -8.94599e-17 0)
(3 -1.28464e-16 0)
(3 -3.40229e-16 0)
(3 -4.95661e-16 0)
(3 -4.57677e-16 0)
(3 -1.28381e-16 0)
(3 1.32028e-16 0)
(3 -1.52171e-16 0)
(3 -5.09563e-16 0)
(3 1.35807e-17 0)
(3 2.55489e-16 0)
(3 5.38329e-16 0)
(3 5.75928e-16 0)
(3 9.20398e-16 0)
(3 3.1837e-16 0)
(3 3.44945e-16 0)
(3 -2.39484e-17 0)
(3 -4.9748e-16 0)
(3 -4.61368e-16 0)
(3 -1.37276e-16 0)
(3 6.63837e-16 0)
(3 3.93229e-16 0)
(3 -2.59389e-16 0)
(1.50974 1.25458 0)
(2.08063 1.29307 0)
(2.28069 1.59939 0)
(2.40582 0.80105 0)
(2.46922 0.37296 0)
(2.53537 0.0132546 0)
(2.55893 -0.184633 0)
(2.55302 -0.261067 0)
(2.47182 -0.371409 0)
(2.46951 -0.355793 0)
(2.47296 -0.248352 0)
(2.45487 -0.206711 0)
(2.43504 -0.194669 0)
(2.42827 -0.165961 0)
(2.40031 -0.118179 0)
(2.37318 -0.0922451 0)
(2.36717 -0.0622593 0)
(2.37962 -0.0307605 0)
(2.39452 -0.0186236 0)
(2.40858 -0.0177251 0)
(2.41686 -0.0139876 0)
(2.41009 -0.010802 0)
(2.39383 -0.0044867 0)
(2.38273 -0.00304308 0)
(2.37661 -0.00325227 0)
(2.38622 -0.00553106 0)
(2.40478 -0.00892385 0)
(2.40822 -0.0109717 0)
(2.40562 -0.0113792 0)
(2.39796 -0.009906 0)
(2.38893 -0.00199496 0)
(2.38804 0.00336824 0)
(2.39207 0.00844729 0)
(2.39216 0.00152238 0)
(1.52579 -0.0567706 0)
(0.88731 -0.0648548 0)
(0.908839 -0.0763129 0)
(0.989736 -0.0710368 0)
(1.05868 -0.0650346 0)
(1.12982 -0.051427 0)
(1.19084 -0.0418238 0)
(1.23824 -0.032288 0)
(1.27354 -0.0287733 0)
(1.31109 -0.0238927 0)
(1.34751 -0.0193033 0)
(1.3841 -0.0168622 0)
(1.42203 -0.0164058 0)
(1.46115 -0.0161236 0)
(1.49938 -0.0143081 0)
(1.53338 -0.0108526 0)
(1.56314 -0.00759587 0)
(1.59032 -0.00356343 0)
(1.61307 -0.00197536 0)
(1.6353 -0.00192569 0)
(1.65711 -0.00161198 0)
(1.67854 -0.000741323 0)
(1.70089 0.000157522 0)
(1.72313 0.000601696 0)
(1.74675 0.000529783 0)
(1.77256 -0.000197351 0)
(1.7951 -0.000549426 0)
(1.81667 4.92068e-05 0)
(1.83654 0.00181599 0)
(1.8544 0.00425315 0)
(1.87317 0.00604381 0)
(1.89402 0.00667771 0)
(1.91529 0.00686604 0)
(1.93746 0.00671391 0)
(1.95989 0.00550844 0)
(1.97948 0.00380562 0)
(1.99774 0.00269572 0)
(2.01109 0.00208454 0)
(2.01139 0.00416531 0)
(2.01024 0.0073726 0)
(2.02276 0.00860752 0)
(2.04146 0.00871007 0)
(2.061 0.00881902 0)
(2.08308 0.00903673 0)
(2.10831 0.00900838 0)
(2.12946 0.00826325 0)
(2.14708 0.00761561 0)
(2.16297 0.00693348 0)
(2.16932 0.00709983 0)
(2.16648 0.00814205 0)
(2.17582 0.0086823 0)
(2.19281 0.00887238 0)
(2.21027 0.00904334 0)
(2.23034 0.00918079 0)
(2.25105 0.00854016 0)
(2.26826 0.0077648 0)
(2.28501 0.00697757 0)
(2.29476 0.00676195 0)
(2.2886 0.00775936 0)
(2.28563 0.00916666 0)
(2.29737 0.00942646 0)
(2.32021 0.00915307 0)
(1.75996 1.10075 0)
(2.29174 0.700081 0)
(2.55383 0.479928 0)
(2.69247 0.252892 0)
(2.72173 -0.221425 0)
(2.71186 -0.521645 0)
(2.69892 -0.553109 0)
(2.72321 -0.603056 0)
(2.72024 -0.587411 0)
(2.67183 -0.518862 0)
(2.58551 -0.368243 0)
(2.54694 -0.247864 0)
(2.51705 -0.227543 0)
(2.49295 -0.210935 0)
(2.46208 -0.128054 0)
(2.4432 -0.0769303 0)
(2.43646 -0.0496141 0)
(2.44151 -0.0036918 0)
(2.43985 0.0170543 0)
(2.4337 0.010896 0)
(2.43112 0.000943248 0)
(2.42817 -0.00759868 0)
(2.41917 -0.013059 0)
(2.41115 -0.0119656 0)
(2.41361 -0.0016101 0)
(2.42151 0.00791801 0)
(2.42832 0.00510068 0)
(2.4313 -0.0100803 0)
(2.42801 -0.0220634 0)
(2.42734 -0.0255402 0)
(2.42585 -0.0186129 0)
(2.42713 0.00990701 0)
(2.42374 0.00989008 0)
(2.3518 -0.089318 0)
(1.90358 -0.23167 0)
(1.1317 -0.0977457 0)
(1.09126 -0.0605854 0)
(1.14254 -0.0644506 0)
(1.1825 -0.0433036 0)
(1.22409 -0.027619 0)
(1.26496 -0.0178073 0)
(1.29661 -0.019846 0)
(1.32655 -0.0245274 0)
(1.36161 -0.0198016 0)
(1.39313 -0.0127523 0)
(1.42408 -0.00942538 0)
(1.45589 -0.00960016 0)
(1.48963 -0.0114667 0)
(1.52512 -0.0124809 0)
(1.55973 -0.00937748 0)
(1.58858 -0.00121828 0)
(1.61046 0.00458535 0)
(1.63014 0.00562942 0)
(1.65021 0.00376922 0)
(1.67148 0.00113866 0)
(1.6938 0.000671128 0)
(1.71603 0.00268509 0)
(1.73671 0.00656572 0)
(1.75726 0.00865203 0)
(1.77793 0.00646778 0)
(1.80132 7.40307e-05 0)
(1.82348 -0.00326211 0)
(1.84513 -0.00332497 0)
(1.86637 0.000737947 0)
(1.88643 0.00904548 0)
(1.90483 0.0180723 0)
(1.9221 0.024143 0)
(1.94044 0.0256419 0)
(1.95936 0.0235653 0)
(1.97826 0.0175104 0)
(1.9962 0.00914055 0)
(2.0109 -0.000717904 0)
(2.0194 -0.00522423 0)
(2.02432 0.00220591 0)
(2.03355 0.01373 0)
(2.0486 0.0215069 0)
(2.06687 0.0253786 0)
(2.08602 0.0282478 0)
(2.10681 0.0290053 0)
(2.12612 0.0264291 0)
(2.14486 0.0217734 0)
(2.16207 0.0151511 0)
(2.17473 0.00889909 0)
(2.1788 0.0125349 0)
(2.18345 0.02165 0)
(2.19631 0.0263423 0)
(2.21263 0.0279357 0)
(2.22949 0.0286951 0)
(2.24761 0.0273708 0)
(2.26624 0.0241562 0)
(2.28371 0.0194726 0)
(2.29731 0.0132742 0)
(2.3006 0.0134632 0)
(2.29612 0.0237058 0)
(2.29971 0.0308102 0)
(2.32192 0.0297418 0)
(1.67287 1.04111 0)
(1.9975 0.925229 0)
(2.38087 0.582835 0)
(2.56064 0.34571 0)
(2.62188 0.157247 0)
(2.6778 -0.0555814 0)
(2.70491 -0.0808064 0)
(2.72533 -0.193972 0)
(2.76813 -0.343882 0)
(2.76731 -0.437982 0)
(2.7589 -0.435933 0)
(2.72364 -0.429311 0)
(2.68471 -0.45378 0)
(2.67281 -0.425752 0)
(2.64678 -0.325768 0)
(2.63632 -0.234318 0)
(2.61998 -0.174217 0)
(2.57051 -0.108371 0)
(2.53111 -0.0501501 0)
(2.50408 -0.0448476 0)
(2.48753 -0.0398002 0)
(2.47251 -0.00675104 0)
(2.47797 0.0213453 0)
(2.48754 0.0105357 0)
(2.49172 -0.0131469 0)
(2.49229 -0.0173771 0)
(2.48975 -0.0125986 0)
(2.47801 -0.00842369 0)
(2.47195 -0.0158664 0)
(2.47674 -0.024449 0)
(2.47971 -0.0252777 0)
(2.47629 -0.0359448 0)
(2.42401 -0.0978915 0)
(2.19708 -0.335846 0)
(2.0457 -0.619324 0)
(1.54182 -0.328149 0)
(1.34042 -0.140181 0)
(1.33654 -0.0427101 0)
(1.36176 -0.0555042 0)
(1.37895 -0.0868793 0)
(1.40681 -0.0829072 0)
(1.42252 -0.0688929 0)
(1.44127 -0.0534024 0)
(1.46452 -0.0444222 0)
(1.48619 -0.0391564 0)
(1.50975 -0.0386044 0)
(1.53491 -0.0368267 0)
(1.56144 -0.0332021 0)
(1.5896 -0.0278903 0)
(1.61879 -0.0223822 0)
(1.64372 -0.0169108 0)
(1.66374 -0.0125468 0)
(1.68021 -0.00740785 0)
(1.69428 -0.00525333 0)
(1.71087 -0.00584622 0)
(1.73059 -0.00619357 0)
(1.75138 -0.00537353 0)
(1.77155 -0.00246902 0)
(1.78939 0.00220814 0)
(1.80584 0.00631427 0)
(1.82542 0.00690905 0)
(1.84604 0.00505843 0)
(1.86795 0.00359529 0)
(1.88934 0.00397779 0)
(1.91028 0.00719375 0)
(1.92961 0.0152882 0)
(1.94578 0.0259337 0)
(1.95871 0.0344995 0)
(1.97098 0.0371775 0)
(1.98502 0.0338289 0)
(1.99947 0.0259754 0)
(2.01275 0.0165672 0)
(2.02699 0.00905109 0)
(2.04154 0.00811555 0)
(2.05522 0.0153648 0)
(2.06785 0.0281344 0)
(2.08183 0.0393721 0)
(2.09824 0.045213 0)
(2.11583 0.0461847 0)
(2.13281 0.0443179 0)
(2.14842 0.0394721 0)
(2.16223 0.0323243 0)
(2.17484 0.0260713 0)
(2.18819 0.0241013 0)
(2.20083 0.0296049 0)
(2.21127 0.0397713 0)
(2.2221 0.0464705 0)
(2.2365 0.0473643 0)
(2.25234 0.0456327 0)
(2.26789 0.0415579 0)
(2.28141 0.0351624 0)
(2.29272 0.0290019 0)
(2.30334 0.0269613 0)
(2.31251 0.0310676 0)
(2.31744 0.0438933 0)
(2.33113 0.0490708 0)
(1.59587 0.981509 0)
(1.91935 0.814083 0)
(2.13324 0.695826 0)
(2.25963 0.602281 0)
(2.44679 0.37435 0)
(2.5914 0.0905389 0)
(2.64558 -0.013656 0)
(2.66176 -0.0998799 0)
(2.72078 -0.280379 0)
(2.73385 -0.393077 0)
(2.75887 -0.423838 0)
(2.77704 -0.472555 0)
(2.77822 -0.487832 0)
(2.76597 -0.482507 0)
(2.74247 -0.444116 0)
(2.72927 -0.396132 0)
(2.71642 -0.351868 0)
(2.68357 -0.291492 0)
(2.6464 -0.219608 0)
(2.61439 -0.176844 0)
(2.58621 -0.146098 0)
(2.549 -0.081539 0)
(2.54843 -0.0320131 0)
(2.54947 -0.0235307 0)
(2.55084 -0.0224561 0)
(2.54991 -0.0176659 0)
(2.54485 -0.0112356 0)
(2.52878 0.00565116 0)
(2.51602 0.0136491 0)
(2.52147 0.0187088 0)
(2.51899 0.000234516 0)
(2.49025 -0.0607379 0)
(2.26382 -0.332918 0)
(2.02079 -0.531269 0)
(1.96176 -0.681247 0)
(1.88039 -0.612403 0)
(1.67837 -0.373951 0)
(1.54077 -0.156502 0)
(1.48019 -0.0766765 0)
(1.48652 -0.0393203 0)
(1.51131 -0.038422 0)
(1.52845 -0.0373412 0)
(1.54863 -0.0324569 0)
(1.56787 -0.0300972 0)
(1.58398 -0.0282017 0)
(1.60113 -0.0263276 0)
(1.62071 -0.0211484 0)
(1.6421 -0.0148397 0)
(1.66546 -0.0128312 0)
(1.68832 -0.00978928 0)
(1.70923 -0.00604126 0)
(1.72783 -0.00192054 0)
(1.74313 0.00274248 0)
(1.75469 0.00753869 0)
(1.76566 0.0107203 0)
(1.78028 0.012222 0)
(1.79785 0.0127399 0)
(1.81579 0.0123383 0)
(1.83227 0.0115528 0)
(1.8472 0.0114439 0)
(1.86359 0.0118614 0)
(1.88316 0.0128544 0)
(1.90336 0.0150907 0)
(1.9235 0.0177581 0)
(1.94325 0.0208945 0)
(1.96132 0.0246626 0)
(1.97551 0.02937 0)
(1.98461 0.0340067 0)
(1.99232 0.0356103 0)
(2.00272 0.0335086 0)
(2.01532 0.0298934 0)
(2.03031 0.0273746 0)
(2.04666 0.0267541 0)
(2.0639 0.0271627 0)
(2.081 0.0297543 0)
(2.09573 0.0367259 0)
(2.10715 0.0461758 0)
(2.11814 0.0529269 0)
(2.13133 0.0550063 0)
(2.1455 0.0537861 0)
(2.15853 0.0499031 0)
(2.17134 0.0448768 0)
(2.18738 0.0429613 0)
(2.20379 0.0429981 0)
(2.22025 0.0437982 0)
(2.23439 0.0480252 0)
(2.24302 0.0553026 0)
(2.25035 0.0596642 0)
(2.26099 0.0596738 0)
(2.27263 0.057437 0)
(2.28348 0.0532879 0)
(2.29598 0.0477434 0)
(2.31089 0.0448437 0)
(2.32653 0.0439775 0)
(2.33884 0.0505899 0)
(2.35012 0.061522 0)
(1.56334 0.935896 0)
(1.8108 0.831702 0)
(1.98146 0.749201 0)
(2.14425 0.631649 0)
(2.32876 0.420186 0)
(2.41957 0.310399 0)
(2.46917 0.245723 0)
(2.57086 0.072448 0)
(2.61948 -0.0687874 0)
(2.6455 -0.16374 0)
(2.67485 -0.210037 0)
(2.70962 -0.261347 0)
(2.7328 -0.288575 0)
(2.71851 -0.335097 0)
(2.70566 -0.386284 0)
(2.7133 -0.393639 0)
(2.72891 -0.412482 0)
(2.73529 -0.417191 0)
(2.72327 -0.384911 0)
(2.69997 -0.327586 0)
(2.67172 -0.273309 0)
(2.62677 -0.193193 0)
(2.60719 -0.120146 0)
(2.60627 -0.0943326 0)
(2.60724 -0.0805362 0)
(2.59022 -0.0733264 0)
(2.57974 -0.0598809 0)
(2.56157 -0.0292272 0)
(2.5564 0.0036758 0)
(2.55135 0.0017745 0)
(2.50657 -0.0555499 0)
(2.27817 -0.333929 0)
(2.06229 -0.534045 0)
(1.95986 -0.586518 0)
(1.9501 -0.642928 0)
(1.95661 -0.670551 0)
(1.93181 -0.61572 0)
(1.82529 -0.440766 0)
(1.6602 -0.214343 0)
(1.58298 -0.0836245 0)
(1.57021 -0.0401156 0)
(1.57719 -0.0204079 0)
(1.60184 -0.0232298 0)
(1.62804 -0.0336485 0)
(1.64652 -0.0362151 0)
(1.66421 -0.0323599 0)
(1.68253 -0.0213877 0)
(1.7009 -0.00580381 0)
(1.71918 -0.0017329 0)
(1.73855 -0.00380658 0)
(1.75739 -0.00284903 0)
(1.77561 0.0016132 0)
(1.79179 0.00601166 0)
(1.80535 0.00824549 0)
(1.81631 0.0101483 0)
(1.82775 0.0130905 0)
(1.84176 0.016473 0)
(1.85713 0.0192442 0)
(1.87221 0.0200777 0)
(1.88621 0.0189252 0)
(1.90203 0.0180434 0)
(1.92069 0.0183375 0)
(1.93986 0.0196291 0)
(1.95918 0.0228605 0)
(1.97768 0.0284212 0)
(1.99385 0.0354726 0)
(2.00559 0.0430951 0)
(2.01093 0.0496368 0)
(2.01392 0.0505113 0)
(2.02357 0.0460452 0)
(2.03893 0.0426151 0)
(2.05594 0.0418577 0)
(2.07335 0.0422404 0)
(2.09105 0.0435045 0)
(2.10852 0.0463464 0)
(2.12422 0.0513099 0)
(2.13526 0.0582995 0)
(2.14127 0.0642175 0)
(2.14784 0.0649877 0)
(2.15856 0.0611425 0)
(2.17267 0.0572264 0)
(2.18958 0.0566845 0)
(2.20668 0.058273 0)
(2.22433 0.0609634 0)
(2.24108 0.062865 0)
(2.25644 0.0656296 0)
(2.26531 0.0704252 0)
(2.26669 0.0736496 0)
(2.27102 0.0707623 0)
(2.28048 0.0654792 0)
(2.29275 0.0619303 0)
(2.3079 0.0622609 0)
(2.32401 0.0639526 0)
(2.34024 0.0648782 0)