/*--------------------------------*- C++ -*----------------------------------*\
  =========                 |
  \\      /  F ield         | OpenFOAM: The Open Source CFD Toolbox
   \\    /   O peration     | Website:  https://openfoam.org
    \\  /    A nd           | Version:  7
     \\/     M anipulation  |
\*---------------------------------------------------------------------------*/
FoamFile
{
    version     2.0;
    format      ascii;
    class       volScalarField;
    location    "0.8";
    object      p;
}
// * * * * * * * * * * * * * * * * * * * * * * * * * * * * * * * * * * * * * //

dimensions      [1 -1 -2 0 0 0 0];

internalField   nonuniform List<scalar> 
258048
(
1
1
1
1
1
1
1
1
1
1
1
1
1
1
1
1
1
1
1
1
1
1
1
1
1
1
1
1
1
1
1
1
1
1
1
1
1
1
1
1
1
1
1
1
1
1
1
1
1
1
1
1
1
1
1
1
1
1
1
1
1
1
1
1
1
1
1
1
1
1
1
1
1
1
1
1
1
1
1
1
1
1
1
1
1
1
1
1
1
1
1
1
1
1
1
1
1
1
1
1
1
1
1
1
1
1
1
1
1
1
1
1
1.019
6.83166
10.951
11.0158
10.9905
11.0012
11.0296
11.0968
11.187
11.2692
11.3207
11.3358
11.3309
11.3143
11.296
11.2885
11.3023
11.3472
11.43
11.5112
11.5561
11.5638
11.5393
11.4911
11.4354
11.4003
11.4017
11.4463
11.5377
11.6588
11.7854
11.8843
11.9454
11.971
11.9598
11.9172
11.8608
11.8151
11.7971
11.8095
11.8605
11.9361
12.0178
12.0799
12.1088
12.1122
12.0978
12.0698
12.0311
11.9878
11.9512
11.9393
11.95
12.0014
12.0738
12.1579
12.2331
12.2833
12.3108
12.3261
12.3404
12.3603
12.376
12.3737
12.3487
12.3007
12.2381
12.1758
12.1306
12.1137
12.1278
12.1666
12.2203
12.2778
12.3302
12.3727
12.4037
12.4254
12.4395
12.444
1
1
1
1
1
1
1
1
1
1
1
1
1
1
1
1
1
1
1
1
1
1
1
1
1
1
1
1
1
1
1
1
1
1
1
1
1
1
1
1
1
1
1
1
1
1
1
1
1
1
1
1
1
1
1
1
1
1
1
1
1
1
1
1
1
1
1
1
1
1
1
1
1
1
1
1
1
1
1
1
1
1
1
1
1
1
1
1
1
1
1
1
1
1
1
1
1
1
1
1
1
1
1
1
1
1
1
1
1
1
1
1
1.01023
6.78913
10.9616
11.0211
10.9972
11.0017
11.0281
11.0953
11.1855
11.2685
11.3214
11.3352
11.3315
11.3148
11.296
11.2877
11.3011
11.3464
11.4292
11.5105
11.5554
11.5627
11.538
11.4897
11.4345
11.4002
11.4022
11.4468
11.538
11.6589
11.7852
11.8839
11.9447
11.9699
11.9586
11.9161
11.8602
11.8149
11.7972
11.8098
11.8608
11.9363
12.0176
12.0792
12.1077
12.111
12.0967
12.0688
12.0302
11.987
11.9507
11.939
11.95
12.0017
12.074
12.1579
12.2326
12.2823
12.3092
12.3245
12.3391
12.3595
12.3757
12.374
12.3494
12.3013
12.2381
12.175
12.1292
12.1121
12.1263
12.1655
12.2195
12.2774
12.33
12.3726
12.4035
12.4248
12.4383
12.4423
1
1
1
1
1
1
1
1
1
1
1
1
1
1
1
1
1
1
1
1
1
1
1
1
1
1
1
1
1
1
1
1
1
1
1
1
1
1
1
1
1
1
1
1
1
1
1
1
1
1
1
1
1
1
1
1
1
1
1
1
1
1
1
1
1
1
1
1
1
1
1
1
1
1
1
1
1
1
1
1
1
1
1
1
1
1
1
1
1
1
1
1
1
1
1
1
1
1
1
1
1
1
1
1
1
1
1
1
1
1
1
1
1.0009
6.72576
10.9858
11.0192
10.9954
10.9968
11.0222
11.0889
11.1798
11.2655
11.321
11.3346
11.3321
11.3152
11.2955
11.286
11.2989
11.3446
11.4272
11.5089
11.554
11.5611
11.5361
11.4875
11.433
11.4001
11.4027
11.4473
11.5385
11.659
11.785
11.8835
11.9438
11.9684
11.9567
11.9143
11.8588
11.814
11.7967
11.8097
11.8608
11.9359
12.0166
12.0776
12.1056
12.1088
12.0946
12.0669
12.0286
11.9856
11.9496
11.9383
11.9496
12.0016
12.0739
12.1576
12.2319
12.2807
12.3069
12.3219
12.3368
12.3581
12.3755
12.3749
12.3506
12.3019
12.2375
12.1733
12.1268
12.1098
12.1245
12.1643
12.2186
12.2765
12.3291
12.3719
12.4027
12.4235
12.4364
12.4397
1
1
1
1
1
1
1
1
1
1
1
1
1
1
1
1
1
1
1
1
1
1
1
1
1
1
1
1
1
1
1
1
1
1
1
1
1
1
1
1
1
1
1
1
1
1
1
1
1
1
1
1
1
1
1
1
1
1
1
1
1
1
1
1
1
1
1
1
1
1
1
1
1
1
1
1
1
1
1
1
1
1
1
1
1
1
1
1
1
1
1
1
1
1
1
1
1
1
1
1
1
1
1
1
1
1
1
1
1
1
1
1
1
6.64813
10.9986
11.0175
10.9903
10.9901
11.0137
11.0808
11.174
11.263
11.3211
11.3354
11.3333
11.3158
11.2943
11.2828
11.2949
11.3408
11.4233
11.5058
11.5515
11.5583
11.5332
11.4844
11.4309
11.4
11.4034
11.448
11.5395
11.6594
11.7849
11.8828
11.9424
11.9662
11.9539
11.9118
11.8569
11.8128
11.7962
11.8098
11.861
11.9356
12.0154
12.0753
12.1026
12.1056
12.0915
12.0641
12.0264
11.9838
11.9483
11.9377
11.9494
12.0017
12.0737
12.1571
12.2306
12.2782
12.3035
12.3182
12.3336
12.3561
12.3749
12.3755
12.3516
12.3023
12.2367
12.171
12.1236
12.1063
12.1215
12.162
12.2169
12.2751
12.3281
12.371
12.4016
12.4218
12.4337
12.4358
1
1
1
1
1
1
1
1
1
1
1
1
1
1
1
1
1
1
1
1
1
1
1
1
1
1
1
1
1
1
1
1
1
1
1
1
1
1
1
1
1
1
1
1
1
1
1
1
1
1
1
1
1
1
1
1
1
1
1
1
1
1
1
1
1
1
1
1
1
1
1
1
1
1
1
1
1
1
1
1
1
1
1
1
1
1
1
1
1
1
1
1
1
1
1
1
1
1
1
1
1
1
1
1
1
1
1
1
1
1
1
1
1
6.55124
11.0116
11.0126
10.9812
10.9825
11.0053
11.0735
11.1694
11.261
11.3208
11.3366
11.3341
11.3153
11.2917
11.2782
11.2894
11.3359
11.4182
11.5019
11.5482
11.5547
11.5296
11.4807
11.4282
11.3996
11.4043
11.4489
11.5405
11.6599
11.7848
11.882
11.9404
11.9632
11.9504
11.9087
11.8546
11.8112
11.7954
11.8097
11.861
11.935
12.0136
12.0721
12.0986
12.1012
12.0874
12.0605
12.0235
11.9817
11.947
11.9373
11.9493
12.0018
12.0734
12.1563
12.2288
12.2751
12.2992
12.3136
12.3298
12.3534
12.3738
12.3758
12.3523
12.3023
12.2353
12.1682
12.1197
12.1022
12.1178
12.1591
12.2146
12.2733
12.3267
12.3699
12.4002
12.4195
12.4301
12.4311
1
1
1
1
1
1
1
1
1
1
1
1
1
1
1
1
1
1
1
1
1
1
1
1
1
1
1
1
1
1
1
1
1
1
1
1
1
1
1
1
1
1
1
1
1
1
1
1
1
1
1
1
1
1
1
1
1
1
1
1
1
1
1
1
1
1
1
1
1
1
1
1
1
1
1
1
1
1
1
1
1
1
1
1
1
1
1
1
1
1
1
1
1
1
1
1
1
1
1
1
1
1
1
1
1
1
1
1
1
1
1
1
1
6.43111
11.0202
11.0071
10.973
10.9747
10.9968
11.0657
11.1642
11.2583
11.3197
11.338
11.3354
11.3147
11.289
11.2732
11.2832
11.33
11.4117
11.4961
11.5429
11.5494
11.5249
11.4762
11.4249
11.3993
11.4056
11.4504
11.542
11.6608
11.7849
11.8808
11.9377
11.9593
11.9461
11.9051
11.852
11.8096
11.7945
11.8096
11.8607
11.9339
12.0111
12.068
12.0933
12.0956
12.082
12.0559
12.0201
11.9793
11.9459
11.9371
11.9495
12.0019
12.0729
12.1549
12.2263
12.2712
12.2943
12.3085
12.3254
12.3503
12.3721
12.3751
12.352
12.3016
12.2334
12.1649
12.1155
12.0976
12.1135
12.1555
12.2118
12.2711
12.325
12.3684
12.3984
12.4168
12.426
12.4256
1
1
1
1
1
1
1
1
1
1
1
1
1
1
1
1
1
1
1
1
1
1
1
1
1
1
1
1
1
1
1
1
1
1
1
1
1
1
1
1
1
1
1
1
1
1
1
1
1
1
1
1
1
1
1
1
1
1
1
1
1
1
1
1
1
1
1
1
1
1
1
1
1
1
1
1
1
1
1
1
1
1
1
1
1
1
1
1
1
1
1
1
1
1
1
1
1
1
1
1
1
1
1
1
1
1
1
1
1
1
1
1
1
6.2856
11.0124
11.0026
10.9674
10.9678
10.9881
11.058
11.1602
11.2567
11.3189
11.3399
11.336
11.3127
11.2847
11.267
11.2763
11.3234
11.4041
11.4891
11.5362
11.5429
11.5193
11.4711
11.4213
11.3992
11.4077
11.4529
11.5438
11.662
11.7848
11.879
11.934
11.9541
11.9408
11.9009
11.8493
11.8079
11.7936
11.8093
11.86
11.9323
12.0078
12.0627
12.0867
12.0885
12.0754
12.0503
12.0161
11.9768
11.945
11.9375
11.9503
12.0022
12.0722
12.1529
12.2231
12.2666
12.2886
12.3028
12.3206
12.3468
12.3698
12.3736
12.3507
12.2997
12.2306
12.1612
12.1108
12.0926
12.1087
12.1514
12.2084
12.2684
12.3228
12.3665
12.3961
12.4136
12.4214
12.4198
1
1
1
1
1
1
1
1
1
1
1
1
1
1
1
1
1
1
1
1
1
1
1
1
1
1
1
1
1
1
1
1
1
1
1
1
1
1
1
1
1
1
1
1
1
1
1
1
1
1
1
1
1
1
1
1
1
1
1
1
1
1
1
1
1
1
1
1
1
1
1
1
1
1
1
1
1
1
1
1
1
1
1
1
1
1
1
1
1
1
1
1
1
1
1
1
1
1
1
1
1
1
1
1
1
1
1
1
1
1
1
1
1
6.11284
10.9903
11.0033
10.9648
10.9632
10.9809
11.0506
11.1573
11.2558
11.3174
11.341
11.3347
11.3093
11.2795
11.2608
11.27
11.3173
11.3962
11.4809
11.5281
11.5348
11.5125
11.465
11.4174
11.3998
11.4111
11.4569
11.5466
11.6635
11.7845
11.8763
11.929
11.9476
11.9344
11.8959
11.8462
11.8063
11.7929
11.8089
11.859
11.9299
12.0035
12.0563
12.0788
12.08
12.0674
12.0436
12.0114
11.9743
11.9446
11.9385
11.9517
12.0027
12.0712
12.1504
12.219
12.261
12.2821
12.2966
12.3157
12.3431
12.367
12.3712
12.3481
12.2966
12.2267
12.1566
12.1059
12.0874
12.1036
12.1468
12.2044
12.2651
12.3201
12.364
12.3934
12.4102
12.4166
12.4139
1
1
1
1
1
1
1
1
1
1
1
1
1
1
1
1
1
1
1
1
1
1
1
1
1
1
1
1
1
1
1
1
1
1
1
1
1
1
1
1
1
1
1
1
1
1
1
1
1
1
1
1
1
1
1
1
1
1
1
1
1
1
1
1
1
1
1
1
1
1
1
1
1
1
1
1
1
1
1
1
1
1
1
1
1
1
1
1
1
1
1
1
1
1
1
1
1
1
1
1
1
1
1
1
1
1
1
1
1
1
1
1
1
5.91619
10.9609
11.0051
10.9632
10.9606
10.9751
11.043
11.1546
11.2552
11.3158
11.341
11.3301
11.304
11.2735
11.2549
11.2646
11.3116
11.3878
11.4712
11.5187
11.5256
11.5045
11.4584
11.4143
11.4017
11.4162
11.4627
11.5504
11.6654
11.7836
11.8726
11.9228
11.9397
11.9266
11.89
11.8426
11.8048
11.7924
11.8088
11.8577
11.9267
11.998
12.0484
12.0694
12.0702
12.0582
12.0359
12.0059
11.9713
11.9444
11.9403
11.9539
12.0037
12.0702
12.1471
12.2138
12.2542
12.2745
12.2898
12.3105
12.3394
12.3639
12.3681
12.3444
12.2921
12.2216
12.1513
12.1005
12.0822
12.0984
12.1417
12.1998
12.261
12.3165
12.3608
12.3901
12.4064
12.4117
12.408
1
1
1
1
1
1
1
1
1
1
1
1
1
1
1
1
1
1
1
1
1
1
1
1
1
1
1
1
1
1
1
1
1
1
1
1
1
1
1
1
1
1
1
1
1
1
1
1
1
1
1
1
1
1
1
1
1
1
1
1
1
1
1
1
1
1
1
1
1
1
1
1
1
1
1
1
1
1
1
1
1
1
1
1
1
1
1
1
1
1
1
1
1
1
1
1
1
1
1
1
1
1
1
1
1
1
1
1
1
1
1
1
1
5.69947
10.9233
11.0041
10.9617
10.9598
10.9712
11.0364
11.1516
11.2536
11.3135
11.3377
11.3226
11.2967
11.2669
11.2493
11.2597
11.3061
11.3788
11.4603
11.5081
11.5153
11.4952
11.4512
11.4132
11.4054
11.4228
11.4702
11.5552
11.6672
11.7819
11.8678
11.9154
11.9306
11.9178
11.8832
11.8385
11.8031
11.7921
11.8088
11.8561
11.9226
11.9912
12.0391
12.0587
12.0593
12.0481
12.0273
11.9997
11.9679
11.9446
11.9428
11.9571
12.005
12.0691
12.1431
12.2073
12.2459
12.2656
12.282
12.3051
12.3356
12.3607
12.3644
12.3397
12.2864
12.2154
12.1452
12.0949
12.0769
12.0932
12.1364
12.1945
12.2561
12.3121
12.3569
12.3863
12.4023
12.4066
12.4022
1
1
1
1
1
1
1
1
1
1
1
1
1
1
1
1
1
1
1
1
1
1
1
1
1
1
1
1
1
1
1
1
1
1
1
1
1
1
1
1
1
1
1
1
1
1
1
1
1
1
1
1
1
1
1
1
1
1
1
1
1
1
1
1
1
1
1
1
1
1
1
1
1
1
1
1
1
1
1
1
1
1
1
1
1
1
1
1
1
1
1
1
1
1
1
1
1
1
1
1
1
1
1
1
1
1
1
1
1
1
1
1
1
5.46509
10.8717
11.0005
10.9626
10.961
10.9705
11.0328
11.1472
11.2495
11.3086
11.3293
11.3119
11.2887
11.2612
11.2447
11.2551
11.2994
11.3688
11.4485
11.4965
11.5036
11.4843
11.444
11.4155
11.4113
11.4314
11.4792
11.5603
11.6684
11.7793
11.8617
11.907
11.9209
11.9083
11.8755
11.8338
11.8012
11.7917
11.8088
11.8541
11.9174
11.9828
12.0282
12.0465
12.0474
12.0374
12.0181
11.9928
11.9638
11.9453
11.9462
11.9607
12.0068
12.0681
12.1385
12.1993
12.2359
12.2552
12.2733
12.2994
12.3319
12.3573
12.3602
12.3341
12.2795
12.208
12.1383
12.0889
12.0715
12.0878
12.1308
12.1889
12.2507
12.3072
12.3525
12.382
12.3977
12.4011
12.3962
1
1
1
1
1
1
1
1
1
1
1
1
1
1
1
1
1
1
1
1
1
1
1
1
1
1
1
1
1
1
1
1
1
1
1
1
1
1
1
1
1
1
1
1
1
1
1
1
1
1
1
1
1
1
1
1
1
1
1
1
1
1
1
1
1
1
1
1
1
1
1
1
1
1
1
1
1
1
1
1
1
1
1
1
1
1
1
1
1
1
1
1
1
1
1
1
1
1
1
1
1
1
1
1
1
1
1
1
1
1
1
1
1
5.21756
10.7996
10.9973
10.9686
10.9636
10.9717
11.0309
11.1397
11.2413
11.2999
11.3159
11.3
11.2812
11.2572
11.2411
11.2501
11.2903
11.3572
11.4357
11.4835
11.4905
11.4719
11.4376
11.4216
11.4199
11.442
11.489
11.565
11.6685
11.7752
11.8544
11.8978
11.9106
11.8984
11.8674
11.8287
11.7991
11.7912
11.8084
11.8513
11.9108
11.9726
12.0156
12.0331
12.0348
12.0263
12.0086
11.9856
11.9592
11.9466
11.9501
11.9646
12.0089
12.067
12.1331
12.1899
12.2242
12.2433
12.2635
12.2931
12.328
12.3537
12.3556
12.3278
12.2717
12.1996
12.1304
12.0821
12.0657
12.082
12.1248
12.1827
12.2448
12.3019
12.3476
12.3772
12.3925
12.3947
12.3893
1
1
1
1
1
1
1
1
1
1
1
1
1
1
1
1
1
1
1
1
1
1
1
1
1
1
1
1
1
1
1
1
1
1
1
1
1
1
1
1
1
1
1
1
1
1
1
1
1
1
1
1
1
1
1
1
1
1
1
1
1
1
1
1
1
1
1
1
1
1
1
1
1
1
1
1
1
1
1
1
1
1
1
1
1
1
1
1
1
1
1
1
1
1
1
1
1
1
1
1
1
1
1
1
1
1
1
1
1
1
1
1
1
4.95975
10.7119
10.9983
10.9811
10.9641
10.9693
11.0277
11.1281
11.2286
11.2863
11.2989
11.2901
11.2759
11.2551
11.2375
11.2438
11.2784
11.3431
11.4217
11.4688
11.4758
11.4594
11.4334
11.4293
11.4328
11.4544
11.4987
11.5687
11.6669
11.7694
11.8457
11.8877
11.9
11.8884
11.8592
11.8237
11.7971
11.7904
11.8074
11.8472
11.9024
11.9604
12.0012
12.0185
12.0215
12.0148
11.999
11.9785
11.9549
11.9483
11.954
11.9685
12.0109
12.0658
12.1272
12.1793
12.2109
12.23
12.2527
12.2863
12.3237
12.3497
12.3507
12.321
12.2632
12.1903
12.1217
12.0746
12.0591
12.0757
12.1182
12.1761
12.2388
12.2964
12.3425
12.3718
12.3865
12.3871
12.3813
1
1
1
1
1
1
1
1
1
1
1
1
1
1
1
1
1
1
1
1
1
1
1
1
1
1
1
1
1
1
1
1
1
1
1
1
1
1
1
1
1
1
1
1
1
1
1
1
1
1
1
1
1
1
1
1
1
1
1
1
1
1
1
1
1
1
1
1
1
1
1
1
1
1
1
1
1
1
1
1
1
1
1
1
1
1
1
1
1
1
1
1
1
1
1
1
1
1
1
1
1
1
1
1
1
1
1
1
1
1
1
1
1
4.68757
10.6233
11.0027
10.9904
10.9582
10.9607
11.0215
11.1138
11.2132
11.2683
11.2826
11.2842
11.2725
11.2533
11.2328
11.2353
11.2635
11.3266
11.4061
11.4517
11.4598
11.4489
11.4352
11.4379
11.447
11.4676
11.5074
11.5708
11.6634
11.7617
11.8353
11.8765
11.8889
11.8785
11.8515
11.8194
11.7954
11.7894
11.8053
11.8415
11.8918
11.946
11.9851
12.0029
12.0075
12.003
11.9894
11.9717
11.9515
11.9503
11.9582
11.9723
12.0124
12.0639
12.1205
12.1676
12.1965
12.2158
12.2412
12.2787
12.3187
12.3451
12.3452
12.3137
12.2541
12.1803
12.1121
12.0662
12.0517
12.0688
12.1114
12.1695
12.2329
12.2914
12.3377
12.3664
12.3798
12.3783
12.3718
1
1
1
1
1
1
1
1
1
1
1
1
1
1
1
1
1
1
1
1
1
1
1
1
1
1
1
1
1
1
1
1
1
1
1
1
1
1
1
1
1
1
1
1
1
1
1
1
1
1
1
1
1
1
1
1
1
1
1
1
1
1
1
1
1
1
1
1
1
1
1
1
1
1
1
1
1
1
1
1
1
1
1
1
1
1
1
1
1
1
1
1
1
1
1
1
1
1
1
1
1
1
1
1
1
1
1
1
1
1
1
1
1
4.39888
10.5391
11.0044
10.9897
10.9546
10.9524
11.0117
11.0954
11.1957
11.2488
11.2705
11.282
11.2699
11.2499
11.2263
11.2246
11.2468
11.3083
11.3885
11.4322
11.4437
11.4411
11.443
11.4489
11.4615
11.4804
11.5144
11.571
11.6577
11.7518
11.8231
11.8641
11.8772
11.8688
11.8449
11.8164
11.7941
11.788
11.802
11.8339
11.879
11.9293
11.9673
11.9861
11.9927
11.9905
11.9798
11.9656
11.9492
11.9529
11.9627
11.9756
12.013
12.0612
12.1128
12.1549
12.1813
12.2011
12.2291
12.2704
12.3127
12.3394
12.3389
12.3057
12.2444
12.1698
12.1019
12.0568
12.0433
12.0611
12.1041
12.1628
12.2271
12.2866
12.333
12.3607
12.3724
12.368
12.3607
1
1
1
1
1
1
1
1
1
1
1
1
1
1
1
1
1
1
1
1
1
1
1
1
1
1
1
1
1
1
1
1
1
1
1
1
1
1
1
1
1
1
1
1
1
1
1
1
1
1
1
1
1
1
1
1
1
1
1
1
1
1
1
1
1
1
1
1
1
1
1
1
1
1
1
1
1
1
1
1
1
1
1
1
1
1
1
1
1
1
1
1
1
1
1
1
1
1
1
1
1
1
1
1
1
1
1
1
1
1
1
1
1
4.09049
10.455
11.0057
10.9753
10.9471
10.9435
10.9955
11.0711
11.1747
11.2331
11.2641
11.281
11.2679
11.2434
11.2168
11.2118
11.2297
11.2885
11.3681
11.4115
11.4303
11.4375
11.4544
11.4639
11.4758
11.4914
11.519
11.5686
11.6493
11.7394
11.8091
11.8505
11.865
11.8595
11.8398
11.815
11.7934
11.7862
11.7973
11.8244
11.8639
11.9106
11.9479
11.9682
11.9768
11.9771
11.9699
11.9602
11.9484
11.9564
11.9674
11.9784
12.0127
12.0572
12.1037
12.1413
12.1658
12.1865
12.2172
12.2616
12.3056
12.3326
12.3314
12.2968
12.2342
12.1588
12.0911
12.0468
12.034
12.0523
12.096
12.1559
12.2215
12.2818
12.3282
12.3545
12.3641
12.3564
12.3484
1
1
1
1
1
1
1
1
1
1
1
1
1
1
1
1
1
1
1
1
1
1
1
1
1
1
1
1
1
1
1
1
1
1
1
1
1
1
1
1
1
1
1
1
1
1
1
1
1
1
1
1
1
1
1
1
1
1
1
1
1
1
1
1
1
1
1
1
1
1
1
1
1
1
1
1
1
1
1
1
1
1
1
1
1
1
1
1
1
1
1
1
1
1
1
1
1
1
1
1
1
1
1
1
1
1
1
1
1
1
1
1
1
3.77572
10.3597
10.9919
10.9485
10.9332
10.9291
10.9762
11.0429
11.1517
11.2218
11.2624
11.2781
11.2643
11.2333
11.2043
11.1976
11.2134
11.2676
11.3453
11.392
11.4217
11.441
11.4685
11.4811
11.4888
11.5
11.521
11.563
11.6379
11.7244
11.7933
11.8357
11.8525
11.8506
11.8363
11.8151
11.7932
11.7837
11.7912
11.8129
11.8469
11.8903
11.9271
11.9491
11.9598
11.9627
11.9594
11.9555
11.9494
11.9608
11.9722
11.9806
12.0112
12.0515
12.093
12.1267
12.1501
12.1724
12.2057
12.2525
12.2975
12.3241
12.3223
12.2866
12.2231
12.1475
12.08
12.0361
12.0238
12.0427
12.0872
12.1484
12.2156
12.2769
12.323
12.3477
12.3548
12.3438
12.3351
1
1
1
1
1
1
1
1
1
1
1
1
1
1
1
1
1
1
1
1
1
1
1
1
1
1
1
1
1
1
1
1
1
1
1
1
1
1
1
1
1
1
1
1
1
1
1
1
1
1
1
1
1
1
1
1
1
1
1
1
1
1
1
1
1
1
1
1
1
1
1
1
1
1
1
1
1
1
1
1
1
1
1
1
1
1
1
1
1
1
1
1
1
1
1
1
1
1
1
1
1
1
1
1
1
1
1
1
1
1
1
1
1
3.47793
10.2373
10.945
10.9234
10.9193
10.919
10.9562
11.0169
11.1319
11.2129
11.2607
11.2726
11.2575
11.2203
11.1898
11.1816
11.1963
11.2458
11.3214
11.3771
11.42
11.4522
11.4841
11.4984
11.4994
11.5057
11.5204
11.5546
11.6238
11.7072
11.7758
11.82
11.8401
11.8425
11.8343
11.8163
11.7935
11.7803
11.7835
11.7995
11.8282
11.8686
11.9054
11.9289
11.9416
11.9472
11.9485
11.9515
11.9522
11.9661
11.977
11.9821
12.0085
12.0439
12.0802
12.1109
12.1343
12.1591
12.1951
12.2434
12.2884
12.3141
12.3114
12.2749
12.211
12.1357
12.0688
12.0253
12.0132
12.0326
12.078
12.1405
12.2092
12.2715
12.3172
12.34
12.3447
12.3304
12.3212
1
1
1
1
1
1
1
1
1
1
1
1
1
1
1
1
1
1
1
1
1
1
1
1
1
1
1
1
1
1
1
1
1
1
1
1
1
1
1
1
1
1
1
1
1
1
1
1
1
1
1
1
1
1
1
1
1
1
1
1
1
1
1
1
1
1
1
1
1
1
1
1
1
1
1
1
1
1
1
1
1
1
1
1
1
1
1
1
1
1
1
1
1
1
1
1
1
1
1
1
1
1
1
1
1
1
1
1
1
1
1
1
1
3.18848
10.0452
10.9126
10.9053
10.9034
10.9093
10.9369
10.9975
11.1177
11.2057
11.2541
11.264
11.2463
11.2067
11.1763
11.1644
11.1754
11.2227
11.3002
11.3693
11.4264
11.4677
11.5011
11.5141
11.5074
11.5082
11.517
11.5434
11.6073
11.6879
11.7571
11.8035
11.828
11.8353
11.8331
11.8179
11.7937
11.7764
11.7742
11.7846
11.8081
11.8461
11.883
11.9078
11.9222
11.9306
11.9375
11.9482
11.9564
11.972
11.9815
11.983
12.0044
12.034
12.0651
12.0937
12.1183
12.1466
12.1856
12.2347
12.2786
12.3023
12.2984
12.2613
12.1978
12.1236
12.0576
12.0146
12.0026
12.0224
12.0684
12.132
12.202
12.265
12.3102
12.3312
12.3338
12.3165
12.3072
1
1
1
1
1
1
1
1
1
1
1
1
1
1
1
1
1
1
1
1
1
1
1
1
1
1
1
1
1
1
1
1
1
1
1
1
1
1
1
1
1
1
1
1
1
1
1
1
1
1
1
1
1
1
1
1
1
1
1
1
1
1
1
1
1
1
1
1
1
1
1
1
1
1
1
1
1
1
1
1
1
1
1
1
1
1
1
1
1
1
1
1
1
1
1
1
1
1
1
1
1
1
1
1
1
1
1
1
1
1
1
1
1
2.88434
9.78266
10.8941
10.8875
10.8901
10.8984
10.9166
10.9875
11.1082
11.1982
11.2398
11.252
11.2328
11.1947
11.1639
11.1458
11.1499
11.2005
11.286
11.3694
11.4379
11.485
11.5176
11.5259
11.5132
11.5074
11.5104
11.5298
11.589
11.6676
11.7379
11.7873
11.8166
11.829
11.8321
11.8191
11.7934
11.7718
11.7634
11.7681
11.7869
11.8228
11.8601
11.886
11.9019
11.9134
11.9267
11.9459
11.9617
11.9784
11.9854
11.9831
11.9987
12.0217
12.0475
12.075
12.1021
12.135
12.1772
12.2263
12.268
12.2889
12.2834
12.2459
12.1834
12.1111
12.0465
12.0041
11.9923
12.0122
12.0587
12.123
12.1938
12.2571
12.3016
12.3211
12.3219
12.3023
12.2935
1
1
1
1
1
1
1
1
1
1
1
1
1
1
1
1
1
1
1
1
1
1
1
1
1
1
1
1
1
1
1
1
1
1
1
1
1
1
1
1
1
1
1
1
1
1
1
1
1
1
1
1
1
1
1
1
1
1
1
1
1
1
1
1
1
1
1
1
1
1
1
1
1
1
1
1
1
1
1
1
1
1
1
1
1
1
1
1
1
1
1
1
1
1
1
1
1
1
1
1
1
1
1
1
1
1
1
1
1
1
1
1
1
2.53706
9.45869
10.9068
10.8808
10.8856
10.8882
10.9046
10.9808
11.0975
11.1874
11.2209
11.2358
11.2197
11.1849
11.1519
11.1258
11.1235
11.184
11.2801
11.376
11.4519
11.5012
11.5309
11.5339
11.5157
11.5033
11.5008
11.5145
11.5695
11.6472
11.7191
11.7719
11.8058
11.8232
11.8306
11.8191
11.7921
11.7663
11.7509
11.7502
11.7647
11.7988
11.8368
11.8636
11.8812
11.8964
11.9169
11.9447
11.9676
11.985
11.9888
11.9822
11.9909
12.0069
12.0274
12.0548
12.0857
12.1241
12.1698
12.2179
12.2565
12.2739
12.2662
12.2285
12.1679
12.0982
12.0357
11.9941
11.9823
12.0022
12.0489
12.1134
12.1843
12.2475
12.2913
12.3094
12.309
12.2877
12.2801
1
1
1
1
1
1
1
1
1
1
1
1
1
1
1
1
1
1
1
1
1
1
1
1
1
1
1
1
1
1
1
1
1
1
1
1
1
1
1
1
1
1
1
1
1
1
1
1
1
1
1
1
1
1
1
1
1
1
1
1
1
1
1
1
1
1
1
1
1
1
1
1
1
1
1
1
1
1
1
1
1
1
1
1
1
1
1
1
1
1
1
1
1
1
1
1
1
1
1
1
1
1
1
1
1
1
1
1
1
1
1
1
1
2.15014
9.0376
10.9492
10.8967
10.8947
10.8801
10.8989
10.9748
11.0857
11.1729
11.2042
11.22
11.2076
11.1734
11.1375
11.1063
11.1054
11.1763
11.2813
11.3859
11.4654
11.5137
11.5392
11.5374
11.5145
11.4958
11.4885
11.4981
11.5499
11.6275
11.7016
11.7579
11.7959
11.8173
11.8279
11.8177
11.7893
11.7595
11.7373
11.731
11.7415
11.7743
11.8132
11.8407
11.8603
11.8801
11.9091
11.9451
11.9738
11.9911
11.9911
11.9797
11.981
11.9897
12.0051
12.0333
12.0692
12.1138
12.163
12.2094
12.2437
12.2573
12.2472
12.2095
12.1513
12.0849
12.0249
11.9844
11.9728
11.9925
12.0392
12.1034
12.1737
12.2362
12.2789
12.2959
12.2949
12.2727
12.267
1
1
1
1
1
1
1
1
1
1
1
1
1
1
1
1
1
1
1
1
1
1
1
1
1
1
1
1
1
1
1
1
1
1
1
1
1
1
1
1
1
1
1
1
1
1
1
1
1
1
1
1
1
1
1
1
1
1
1
1
1
1
1
1
1
1
1
1
1
1
1
1
1
1
1
1
1
1
1
1
1
1
1
1
1
1
1
1
1
1
1
1
1
1
1
1
1
1
1
1
1
1
1
1
1
1
1
1
1
1
1
1
1
1.74772
8.46442
10.9742
10.9285
10.9079
10.881
10.9003
10.97
11.0737
11.1558
11.1925
11.206
11.1955
11.1577
11.1201
11.0939
11.101
11.1765
11.2877
11.3965
11.4761
11.5202
11.5421
11.5363
11.5092
11.4854
11.4744
11.4815
11.5309
11.6091
11.6856
11.7453
11.7867
11.8113
11.8241
11.8149
11.7848
11.7512
11.7224
11.7105
11.7176
11.7492
11.7889
11.817
11.8396
11.8657
11.904
11.9471
11.98
11.9962
11.9919
11.9756
11.9692
11.9701
11.9809
12.011
12.0529
12.1037
12.1562
12.2003
12.2295
12.2391
12.2262
12.1889
12.1338
12.0711
12.0139
11.9749
11.9636
11.9831
12.0294
12.0929
12.162
12.223
12.2645
12.2806
12.2795
12.2572
12.2539
1
1
1
1
1
1
1
1
1
1
1
1
1
1
1
1
1
1
1
1
1
1
1
1
1
1
1
1
1
1
1
1
1
1
1
1
1
1
1
1
1
1
1
1
1
1
1
1
1
1
1
1
1
1
1
1
1
1
1
1
1
1
1
1
1
1
1
1
1
1
1
1
1
1
1
1
1
1
1
1
1
1
1
1
1
1
1
1
1
1
1
1
1
1
1
1
1
1
1
1
1
1
1
1
1
1
1
1
1
1
1
1
1
1.36309
7.7521
10.9478
10.96
10.9145
10.9035
10.9084
10.964
11.0595
11.1373
11.1798
11.1891
11.1813
11.1399
11.1083
11.0932
11.1088
11.1836
11.2958
11.4046
11.4814
11.5207
11.5394
11.5304
11.5002
11.473
11.4599
11.4656
11.5131
11.592
11.6709
11.7336
11.7778
11.805
11.8191
11.8103
11.7783
11.741
11.7065
11.6893
11.693
11.723
11.7634
11.7925
11.8195
11.8541
11.9017
11.9503
11.9856
11.9999
11.991
11.9697
11.9553
11.9484
11.9553
11.9886
12.0368
12.0935
12.1486
12.1905
12.214
12.219
12.2035
12.1672
12.1155
12.0569
12.0028
11.9654
11.9546
11.974
12.0197
12.0821
12.1494
12.2084
12.2481
12.2634
12.2625
12.241
12.2405
1
1
1
1
1
1
1
1
1
1
1
1
1
1
1
1
1
1
1
1
1
1
1
1
1
1
1
1
1
1
1
1
1
1
1
1
1
1
1
1
1
1
1
1
1
1
1
1
1
1
1
1
1
1
1
1
1
1
1
1
1
1
1
1
1
1
1
1
1
1
1
1
1
1
1
1
1
1
1
1
1
1
1
1
1
1
1
1
1
1
1
1
1
1
1
1
1
1
1
1
1
1
1
1
1
1
1
1
1
1
1
1
1
1.04068
6.95841
10.9248
10.9697
10.9261
10.9096
10.901
10.9554
11.0387
11.1155
11.157
11.1688
11.1662
11.1269
11.1112
11.1055
11.1259
11.1939
11.3005
11.4063
11.4797
11.515
11.5311
11.5207
11.4889
11.4599
11.4459
11.4512
11.4967
11.5759
11.6568
11.7221
11.7687
11.7983
11.8131
11.8038
11.7697
11.7289
11.6899
11.6682
11.6683
11.6953
11.7362
11.7674
11.8011
11.8459
11.9017
11.9538
11.99
12.002
11.9886
11.9618
11.9392
11.925
11.9291
11.9665
12.0213
12.0831
12.1398
12.1792
12.1967
12.1971
12.1794
12.1444
12.0965
12.042
11.9912
11.9557
11.9456
11.965
12.0101
12.071
12.1358
12.1922
12.2298
12.2443
12.2442
12.2241
12.2267
1
1
1
1
1
1
1
1
1
1
1
1
1
1
1
1
1
1
1
1
1
1
1
1
1
1
1
1
1
1
1
1
1
1
1
1
1
1
1
1
1
1
1
1
1
1
1
1
1
1
1
1
1
1
1
1
1
1
1
1
1
1
1
1
1
1
1
1
1
1
1
1
1
1
1
1
1
1
1
1
1
1
1
1
1
1
1
1
1
1
1
1
1
1
1
1
1
1
1
1
1
1
1
1
1
1
1
1
1
1
1
1
1
1.00024
6.18028
10.8494
10.9431
10.9041
10.8869
10.885
10.9368
11.01
11.0863
11.1327
11.1558
11.1554
11.1328
11.1283
11.1257
11.1457
11.2022
11.2971
11.399
11.4703
11.5036
11.5191
11.5091
11.4769
11.447
11.4329
11.4382
11.4814
11.5601
11.6425
11.7102
11.7588
11.7905
11.8058
11.7954
11.7593
11.715
11.6728
11.6479
11.644
11.666
11.7072
11.7423
11.7851
11.8409
11.9032
11.9569
11.9928
12.0025
11.9842
11.9514
11.9208
11.9002
11.903
11.9451
12.0064
12.0726
12.1299
12.1661
12.1776
12.1734
12.1539
12.1206
12.0767
12.0265
11.9791
11.9458
11.9368
11.9562
12.0005
12.0595
12.1213
12.1744
12.2095
12.2234
12.2244
12.2067
12.2124
1
1
1
1
1
1
1
1
1
1
1
1
1
1
1
1
1
1
1
1
1
1
1
1
1
1
1
1
1
1
1
1
1
1
1
1
1
1
1
1
1
1
1
1
1
1
1
1
1
1
1
1
1
1
1
1
1
1
1
1
1
1
1
1
1
1
1
1
1
1
1
1
1
1
1
1
1
1
1
1
1
1
1
1
1
1
1
1
1
1
1
1
1
1
1
1
1
1
1
1
1
1
1
1
1
1
1
1
1
1
1
1
1
1
5.49945
10.7714
10.9021
10.8662
10.8609
10.8674
10.9061
10.9746
11.0571
11.1173
11.158
11.1573
11.1577
11.1534
11.1479
11.1581
11.2011
11.2838
11.383
11.4549
11.4895
11.5057
11.4972
11.4654
11.4348
11.4208
11.4264
11.4666
11.5439
11.6272
11.6971
11.7477
11.7809
11.7963
11.7847
11.7472
11.7001
11.6552
11.6278
11.6201
11.6361
11.677
11.7182
11.7722
11.8381
11.9049
11.9586
11.9936
12.0008
11.9773
11.9386
11.9003
11.8746
11.8777
11.9248
11.9919
12.0615
12.1186
12.1512
12.1566
12.1479
12.1269
12.0956
12.056
12.0102
11.9664
11.9359
11.9283
11.9476
11.9908
12.0474
12.1056
12.1548
12.1873
12.2008
12.2034
12.1889
12.1978
1
1
1
1
1
1
1
1
1
1
1
1
1
1
1
1
1
1
1
1
1
1
1
1
1
1
1
1
1
1
1
1
1
1
1
1
1
1
1
1
1
1
1
1
1
1
1
1
1
1
1
1
1
1
1
1
1
1
1
1
1
1
1
1
1
1
1
1
1
1
1
1
1
1
1
1
1
1
1
1
1
1
1
1
1
1
1
1
1
1
1
1
1
1
1
1
1
1
1
1
1
1
1
1
1
1
1
1
1
1
1
1
1
1
4.87344
10.6547
10.8744
10.8424
10.8414
10.8478
10.873
10.9442
11.0404
11.1204
11.1656
11.178
11.184
11.1734
11.1637
11.1566
11.186
11.2637
11.3613
11.4371
11.4752
11.4924
11.4854
11.4552
11.4241
11.4099
11.4154
11.4521
11.527
11.6105
11.6824
11.7348
11.7689
11.7839
11.7713
11.7339
11.6852
11.638
11.6072
11.5955
11.6063
11.6469
11.6967
11.7623
11.8361
11.9054
11.9586
11.992
11.9968
11.9682
11.9234
11.8781
11.8487
11.8534
11.9056
11.9777
12.0495
12.1058
12.1345
12.1339
12.1208
12.0986
12.0694
12.0341
11.993
11.9534
11.9262
11.9204
11.9394
11.9808
12.0346
12.0885
12.1332
12.1629
12.1763
12.1813
12.171
12.1832
1
1
1
1
1
1
1
1
1
1
1
1
1
1
1
1
1
1
1
1
1
1
1
1
1
1
1
1
1
1
1
1
1
1
1
1
1
1
1
1
1
1
1
1
1
1
1
1
1
1
1
1
1
1
1
1
1
1
1
1
1
1
1
1
1
1
1
1
1
1
1
1
1
1
1
1
1
1
1
1
1
1
1
1
1
1
1
1
1
1
1
1
1
1
1
1
1
1
1
1
1
1
1
1
1
1
1
1
1
1
1
1
1
1
4.27136
10.4859
10.8691
10.8363
10.8307
10.8215
10.8451
10.9262
11.0399
11.1321
11.177
11.2023
11.2006
11.1826
11.1644
11.1442
11.1628
11.2415
11.3392
11.42
11.4621
11.4796
11.4737
11.4463
11.415
11.3998
11.4049
11.4376
11.5092
11.5921
11.6654
11.7194
11.7539
11.7685
11.7556
11.7194
11.6706
11.6214
11.5858
11.5689
11.5766
11.619
11.6793
11.7552
11.8336
11.9039
11.9565
11.9881
11.9897
11.9567
11.9057
11.8544
11.8228
11.8304
11.8871
11.9632
12.0365
12.091
12.1156
12.1101
12.0927
12.069
12.0416
12.0107
11.9746
11.94
11.917
11.9133
11.9318
11.9706
12.0204
12.0695
12.1092
12.1361
12.1501
12.1582
12.153
12.1689
1
1
1
1
1
1
1
1
1
1
1
1
1
1
1
1
1
1
1
1
1
1
1
1
1
1
1
1
1
1
1
1
1
1
1
1
1
1
1
1
1
1
1
1
1
1
1
1
1
1
1
1
1
1
1
1
1
1
1
1
1
1
1
1
1
1
1
1
1
1
1
1
1
1
1
1
1
1
1
1
1
1
1
1
1
1
1
1
1
1
1
1
1
1
1
1
1
1
1
1
1
1
1
1
1
1
1
1
1
1
1
1
1
1
3.69217
10.2639
10.867
10.8337
10.8141
10.8005
10.8334
10.9239
11.043
11.1371
11.1907
11.2138
11.1992
11.175
11.1475
11.1263
11.1438
11.219
11.3197
11.4048
11.45
11.4674
11.4629
11.438
11.4068
11.3903
11.3946
11.4232
11.4906
11.5719
11.6459
11.7012
11.7357
11.7503
11.7382
11.7036
11.6558
11.6052
11.5636
11.5397
11.5476
11.5956
11.6671
11.7501
11.8301
11.8997
11.9516
11.9812
11.9795
11.9426
11.886
11.83
11.798
11.8091
11.8688
11.9474
12.0215
12.0741
12.0947
12.0852
12.0635
12.0382
12.0123
11.9855
11.9549
11.9264
11.9087
11.9075
11.9249
11.9602
12.0048
12.0481
12.0824
12.1067
12.122
12.1341
12.135
12.1547
1
1
1
1
1
1
1
1
1
1
1
1
1
1
1
1
1
1
1
1
1
1
1
1
1
1
1
1
1
1
1
1
1
1
1
1
1
1
1
1
1
1
1
1
1
1
1
1
1
1
1
1
1
1
1
1
1
1
1
1
1
1
1
1
1
1
1
1
1
1
1
1
1
1
1
1
1
1
1
1
1
1
1
1
1
1
1
1
1
1
1
1
1
1
1
1
1
1
1
1
1
1
1
1
1
1
1
1
1
1
1
1
1
1
3.13651
9.95611
10.8562
10.8318
10.8031
10.796
10.8338
10.9255
11.0389
11.1378
11.1915
11.2045
11.1868
11.1553
11.1247
11.1067
11.13
11.1997
11.3038
11.3916
11.4389
11.4552
11.4523
11.4295
11.3984
11.3806
11.3838
11.4084
11.4707
11.55
11.6239
11.6801
11.7145
11.7299
11.72
11.6869
11.6399
11.5881
11.5397
11.509
11.5214
11.5781
11.6594
11.7461
11.8251
11.8926
11.9435
11.9712
11.9662
11.9258
11.865
11.806
11.7753
11.7894
11.8502
11.9297
12.0036
12.0545
12.0717
12.0589
12.0336
12.0066
11.9818
11.9586
11.9341
11.9127
11.9012
11.9028
11.9188
11.9494
11.9877
12.0242
12.0529
12.0747
12.0921
12.1091
12.1169
12.1404
1
1
1
1
1
1
1
1
1
1
1
1
1
1
1
1
1
1
1
1
1
1
1
1
1
1
1
1
1
1
1
1
1
1
1
1
1
1
1
1
1
1
1
1
1
1
1
1
1
1
1
1
1
1
1
1
1
1
1
1
1
1
1
1
1
1
1
1
1
1
1
1
1
1
1
1
1
1
1
1
1
1
1
1
1
1
1
1
1
1
1
1
1
1
1
1
1
1
1
1
1
1
1
1
1
1
1
1
1
1
1
1
1
1
2.60973
9.55665
10.8644
10.8293
10.802
10.7991
10.838
10.913
11.0323
11.13
11.1775
11.1838
11.1642
11.1337
11.1064
11.096
11.1196
11.1855
11.2896
11.3791
11.4282
11.4424
11.4421
11.4211
11.3893
11.3705
11.3718
11.3926
11.4493
11.5264
11.6
11.6564
11.6911
11.7082
11.7014
11.6694
11.6223
11.5682
11.5136
11.4795
11.5001
11.5662
11.6544
11.7422
11.8188
11.883
11.9319
11.9573
11.949
11.9063
11.8431
11.7836
11.7556
11.7713
11.8312
11.9097
11.9824
12.0316
12.0463
12.0311
12.003
11.9745
11.9503
11.9302
11.9122
11.899
11.8945
11.899
11.9131
11.938
11.9688
11.9979
12.0208
12.0403
12.0604
12.0831
12.0982
12.1256
1
1
1
1
1
1
1
1
1
1
1
1
1
1
1
1
1
1
1
1
1
1
1
1
1
1
1
1
1
1
1
1
1
1
1
1
1
1
1
1
1
1
1
1
1
1
1
1
1
1
1
1
1
1
1
1
1
1
1
1
1
1
1
1
1
1
1
1
1
1
1
1
1
1
1
1
1
1
1
1
1
1
1
1
1
1
1
1
1
1
1
1
1
1
1
1
1
1
1
1
1
1
1
1
1
1
1
1
1
1
1
1
1
1
2.14244
9.08957
10.823
10.798
10.7936
10.7967
10.8363
10.8964
11.0186
11.1108
11.1562
11.1627
11.1415
11.1193
11.0933
11.094
11.113
11.175
11.2759
11.3653
11.4166
11.4298
11.4316
11.4129
11.379
11.3594
11.3582
11.3751
11.4259
11.5009
11.5741
11.6309
11.6663
11.6855
11.6824
11.6512
11.6029
11.5454
11.4859
11.4547
11.4851
11.5583
11.6502
11.7375
11.811
11.871
11.9166
11.9389
11.9276
11.884
11.8212
11.764
11.7393
11.7548
11.8114
11.8872
11.9577
12.005
12.018
12.0015
11.9717
11.9418
11.9179
11.9006
11.8896
11.8855
11.8884
11.8958
11.9075
11.9257
11.9481
11.9693
11.9865
12.004
12.0271
12.0558
12.0787
12.1099
1
1
1
1
1
1
1
1
1
1
1
1
1
1
1
1
1
1
1
1
1
1
1
1
1
1
1
1
1
1
1
1
1
1
1
1
1
1
1
1
1
1
1
1
1
1
1
1
1
1
1
1
1
1
1
1
1
1
1
1
1
1
1
1
1
1
1
1
1
1
1
1
1
1
1
1
1
1
1
1
1
1
1
1
1
1
1
1
1
1
1
1
1
1
1
1
1
1
1
1
1
1
1
1
1
1
1
1
1
1
1
1
1
1
1.75372
8.52381
10.7526
10.7799
10.7851
10.7929
10.8215
10.8805
10.9928
11.0851
11.1354
11.1449
11.1333
11.1146
11.0901
11.0918
11.1086
11.1635
11.26
11.3495
11.4027
11.4172
11.4205
11.4046
11.3678
11.3476
11.3434
11.3563
11.4005
11.4733
11.5465
11.6043
11.6411
11.6627
11.6625
11.6315
11.5814
11.5201
11.459
11.4374
11.4756
11.5521
11.6451
11.7311
11.8012
11.8563
11.8971
11.9154
11.9021
11.8596
11.8002
11.7478
11.7262
11.7399
11.7911
11.8624
11.9296
11.9747
11.9866
11.9698
11.9393
11.9087
11.885
11.8702
11.8667
11.8724
11.8826
11.8925
11.9014
11.9123
11.9255
11.9385
11.9504
11.9665
11.9927
12.0272
12.0576
12.0923
1
1
1
1
1
1
1
1
1
1
1
1
1
1
1
1
1
1
1
1
1
1
1
1
1
1
1
1
1
1
1
1
1
1
1
1
1
1
1
1
1
1
1
1
1
1
1
1
1
1
1
1
1
1
1
1
1
1
1
1
1
1
1
1
1
1
1
1
1
1
1
1
1
1
1
1
1
1
1
1
1
1
1
1
1
1
1
1
1
1
1
1
1
1
1
1
1
1
1
1
1
1
1
1
1
1
1
1
1
1
1
1
1
1
1.39442
7.84083
10.7171
10.7687
10.771
10.786
10.7982
10.8621
10.964
11.0581
11.12
11.1351
11.1351
11.116
11.0948
11.0876
11.1039
11.1502
11.2419
11.3315
11.3863
11.4046
11.4084
11.395
11.3566
11.3347
11.328
11.337
11.374
11.4435
11.5167
11.5765