/*--------------------------------*- C++ -*----------------------------------*\
  =========                 |
  \\      /  F ield         | OpenFOAM: The Open Source CFD Toolbox
   \\    /   O peration     | Website:  https://openfoam.org
    \\  /    A nd           | Version:  7
     \\/     M anipulation  |
\*---------------------------------------------------------------------------*/
FoamFile
{
    version     2.0;
    format      ascii;
    class       volScalarField;
    location    "0.8";
    object      rho;
}
// * * * * * * * * * * * * * * * * * * * * * * * * * * * * * * * * * * * * * //

dimensions      [1 -3 0 0 0 0 0];

internalField   nonuniform List<scalar> 
258048
(
1.40001
1.40001
1.40001
1.40001
1.40001
1.40001
1.40001
1.40001
1.40001
1.40001
1.40001
1.40001
1.40001
1.40001
1.40001
1.40001
1.40001
1.40001
1.40001
1.40001
1.40001
1.40001
1.40001
1.40001
1.40001
1.40001
1.40001
1.40001
1.40001
1.40001
1.40001
1.40001
1.40001
1.40001
1.40001
1.40001
1.40001
1.40001
1.40001
1.40001
1.40001
1.40001
1.40001
1.40001
1.40001
1.40001
1.40001
1.40001
1.40001
1.40001
1.40001
1.40001
1.40001
1.40001
1.40001
1.40001
1.40001
1.40001
1.40001
1.40001
1.40001
1.40001
1.40001
1.40001
1.40001
1.40001
1.40001
1.40001
1.40001
1.40001
1.40001
1.40001
1.40001
1.40001
1.40001
1.40001
1.40001
1.40001
1.40001
1.40001
1.40001
1.40001
1.40001
1.40001
1.40001
1.40001
1.40001
1.40001
1.40001
1.40001
1.40001
1.40001
1.40001
1.40001
1.40001
1.40001
1.40001
1.40001
1.40001
1.40001
1.40001
1.40001
1.40001
1.40001
1.40001
1.40001
1.40001
1.40001
1.40001
1.40001
1.40001
1.40001
1.4083
4.11138
5.51795
5.50592
5.49662
5.5072
5.53203
5.57305
5.61591
5.6468
5.65296
5.6394
5.62404
5.61591
5.61295
5.61906
5.63116
5.6484
5.67444
5.69635
5.70604
5.70652
5.69866
5.6836
5.66473
5.6511
5.64995
5.66305
5.69349
5.73514
5.77866
5.81233
5.83253
5.84035
5.83552
5.81912
5.79797
5.78058
5.77325
5.77695
5.7936
5.81857
5.84556
5.86586
5.87454
5.8745
5.86856
5.85755
5.84286
5.82616
5.81124
5.80518
5.80716
5.82219
5.84353
5.86858
5.89061
5.90293
5.90555
5.90241
5.89746
5.89339
5.88717
5.87351
5.84958
5.81517
5.77336
5.72854
5.68421
5.64012
5.59166
5.53102
5.45146
5.35198
5.24123
5.13608
5.05368
5.00332
4.98176
4.97646
1.40001
1.40001
1.40001
1.40001
1.40001
1.40001
1.40001
1.40001
1.40001
1.40001
1.40001
1.40001
1.40001
1.40001
1.40001
1.40001
1.40001
1.40001
1.40001
1.40001
1.40001
1.40001
1.40001
1.40001
1.40001
1.40001
1.40001
1.40001
1.40001
1.40001
1.40001
1.40001
1.40001
1.40001
1.40001
1.40001
1.40001
1.40001
1.40001
1.40001
1.40001
1.40001
1.40001
1.40001
1.40001
1.40001
1.40001
1.40001
1.40001
1.40001
1.40001
1.40001
1.40001
1.40001
1.40001
1.40001
1.40001
1.40001
1.40001
1.40001
1.40001
1.40001
1.40001
1.40001
1.40001
1.40001
1.40001
1.40001
1.40001
1.40001
1.40001
1.40001
1.40001
1.40001
1.40001
1.40001
1.40001
1.40001
1.40001
1.40001
1.40001
1.40001
1.40001
1.40001
1.40001
1.40001
1.40001
1.40001
1.40001
1.40001
1.40001
1.40001
1.40001
1.40001
1.40001
1.40001
1.40001
1.40001
1.40001
1.40001
1.40001
1.40001
1.40001
1.40001
1.40001
1.40001
1.40001
1.40001
1.40001
1.40001
1.40001
1.40001
1.40432
4.09511
5.51943
5.50766
5.49897
5.50759
5.53178
5.57266
5.61545
5.64649
5.65305
5.63903
5.62421
5.61612
5.61304
5.61889
5.63079
5.64814
5.67412
5.69603
5.70573
5.70611
5.6982
5.68312
5.66439
5.65106
5.6501
5.66319
5.69358
5.73512
5.77856
5.81217
5.83226
5.83996
5.83509
5.81876
5.79775
5.78049
5.77328
5.77706
5.79371
5.81862
5.84546
5.86559
5.87417
5.87409
5.86817
5.8572
5.84256
5.8259
5.81106
5.80507
5.80716
5.82225
5.84356
5.86855
5.89043
5.90254
5.905
5.90181
5.89694
5.89303
5.887
5.87352
5.84966
5.81517
5.77314
5.72802
5.68341
5.63913
5.59057
5.52991
5.45036
5.35097
5.24042
5.13553
5.05333
5.003
4.98134
4.97592
1.40001
1.40001
1.40001
1.40001
1.40001
1.40001
1.40001
1.40001
1.40001
1.40001
1.40001
1.40001
1.40001
1.40001
1.40001
1.40001
1.40001
1.40001
1.40001
1.40001
1.40001
1.40001
1.40001
1.40001
1.40001
1.40001
1.40001
1.40001
1.40001
1.40001
1.40001
1.40001
1.40001
1.40001
1.40001
1.40001
1.40001
1.40001
1.40001
1.40001
1.40001
1.40001
1.40001
1.40001
1.40001
1.40001
1.40001
1.40001
1.40001
1.40001
1.40001
1.40001
1.40001
1.40001
1.40001
1.40001
1.40001
1.40001
1.40001
1.40001
1.40001
1.40001
1.40001
1.40001
1.40001
1.40001
1.40001
1.40001
1.40001
1.40001
1.40001
1.40001
1.40001
1.40001
1.40001
1.40001
1.40001
1.40001
1.40001
1.40001
1.40001
1.40001
1.40001
1.40001
1.40001
1.40001
1.40001
1.40001
1.40001
1.40001
1.40001
1.40001
1.40001
1.40001
1.40001
1.40001
1.40001
1.40001
1.40001
1.40001
1.40001
1.40001
1.40001
1.40001
1.40001
1.40001
1.40001
1.40001
1.40001
1.40001
1.40001
1.40001
1.40036
4.06888
5.52227
5.50681
5.4982
5.50647
5.53083
5.57104
5.6137
5.64523
5.6524
5.63835
5.62428
5.61638
5.61318
5.61865
5.63021
5.64755
5.67332
5.69526
5.70509
5.70546
5.69749
5.68234
5.66382
5.65095
5.6502
5.66327
5.69367
5.73506
5.7784
5.81194
5.83188
5.8394
5.83439
5.8181
5.79725
5.78017
5.77311
5.77702
5.79368
5.81846
5.84509
5.86499
5.87342
5.87331
5.86741
5.85651
5.84197
5.82538
5.81065
5.80482
5.80698
5.82218
5.84346
5.86841
5.89014
5.90193
5.90408
5.90077
5.89598
5.89234
5.88669
5.87349
5.84966
5.81489
5.77233
5.72665
5.68155
5.6369
5.58802
5.52701
5.44714
5.34773
5.23761
5.13348
5.05202
5.0021
4.98051
4.97493
1.40001
1.40001
1.40001
1.40001
1.40001
1.40001
1.40001
1.40001
1.40001
1.40001
1.40001
1.40001
1.40001
1.40001
1.40001
1.40001
1.40001
1.40001
1.40001
1.40001
1.40001
1.40001
1.40001
1.40001
1.40001
1.40001
1.40001
1.40001
1.40001
1.40001
1.40001
1.40001
1.40001
1.40001
1.40001
1.40001
1.40001
1.40001
1.40001
1.40001
1.40001
1.40001
1.40001
1.40001
1.40001
1.40001
1.40001
1.40001
1.40001
1.40001
1.40001
1.40001
1.40001
1.40001
1.40001
1.40001
1.40001
1.40001
1.40001
1.40001
1.40001
1.40001
1.40001
1.40001
1.40001
1.40001
1.40001
1.40001
1.40001
1.40001
1.40001
1.40001
1.40001
1.40001
1.40001
1.40001
1.40001
1.40001
1.40001
1.40001
1.40001
1.40001
1.40001
1.40001
1.40001
1.40001
1.40001
1.40001
1.40001
1.40001
1.40001
1.40001
1.40001
1.40001
1.40001
1.40001
1.40001
1.40001
1.40001
1.40001
1.40001
1.40001
1.40001
1.40001
1.40001
1.40001
1.40001
1.40001
1.40001
1.40001
1.40001
1.40001
1.40001
4.03383
5.51986
5.50552
5.49634
5.50553
5.52986
5.56919
5.61199
5.64384
5.6514
5.63784
5.62459
5.61679
5.61338
5.61821
5.62912
5.64634
5.67178
5.69385
5.70394
5.70438
5.69642
5.68127
5.66304
5.6508
5.65033
5.66338
5.69386
5.73507
5.77823
5.81162
5.83131
5.83853
5.83335
5.81716
5.79654
5.77971
5.77289
5.77701
5.79369
5.81829
5.84459
5.86414
5.87234
5.87216
5.8663
5.85552
5.84114
5.8247
5.81017
5.80457
5.80681
5.82211
5.8433
5.86814
5.88963
5.901
5.90277
5.89932
5.89466
5.89136
5.88613
5.87325
5.84943
5.81432
5.77112
5.72464
5.6787
5.63322
5.5835
5.52163
5.44111
5.34164
5.23231
5.1296
5.04956
5.00052
4.97916
4.9734
1.40001
1.40001
1.40001
1.40001
1.40001
1.40001
1.40001
1.40001
1.40001
1.40001
1.40001
1.40001
1.40001
1.40001
1.40001
1.40001
1.40001
1.40001
1.40001
1.40001
1.40001
1.40001
1.40001
1.40001
1.40001
1.40001
1.40001
1.40001
1.40001
1.40001
1.40001
1.40001
1.40001
1.40001
1.40001
1.40001
1.40001
1.40001
1.40001
1.40001
1.40001
1.40001
1.40001
1.40001
1.40001
1.40001
1.40001
1.40001
1.40001
1.40001
1.40001
1.40001
1.40001
1.40001
1.40001
1.40001
1.40001
1.40001
1.40001
1.40001
1.40001
1.40001
1.40001
1.40001
1.40001
1.40001
1.40001
1.40001
1.40001
1.40001
1.40001
1.40001
1.40001
1.40001
1.40001
1.40001
1.40001
1.40001
1.40001
1.40001
1.40001
1.40001
1.40001
1.40001
1.40001
1.40001
1.40001
1.40001
1.40001
1.40001
1.40001
1.40001
1.40001
1.40001
1.40001
1.40001
1.40001
1.40001
1.40001
1.40001
1.40001
1.40001
1.40001
1.40001
1.40001
1.40001
1.40001
1.40001
1.40001
1.40001
1.40001
1.40001
1.40001
3.99064
5.5183
5.50363
5.49379
5.50504
5.52933
5.56758
5.61055
5.64225
5.6498
5.63712
5.62485
5.61705
5.61348
5.61758
5.62769
5.64481
5.66979
5.69202
5.70243
5.70303
5.69516
5.68004
5.66209
5.65058
5.65046
5.66351
5.69406
5.73506
5.77804
5.81118
5.83053
5.8374
5.83205
5.81601
5.79569
5.77914
5.77259
5.77696
5.79364
5.818
5.84387
5.86297
5.87088
5.8706
5.86481
5.8542
5.84009
5.82388
5.80966
5.80437
5.80669
5.82201
5.84306
5.86773
5.88893
5.89984
5.90118
5.89759
5.89309
5.89018
5.88544
5.8729
5.84908
5.8136
5.7697
5.72228
5.67526
5.6286
5.57755
5.51431
5.43268
5.33297
5.22465
5.12388
5.04588
4.9982
4.97729
4.9714
1.40001
1.40001
1.40001
1.40001
1.40001
1.40001
1.40001
1.40001
1.40001
1.40001
1.40001
1.40001
1.40001
1.40001
1.40001
1.40001
1.40001
1.40001
1.40001
1.40001
1.40001
1.40001
1.40001
1.40001
1.40001
1.40001
1.40001
1.40001
1.40001
1.40001
1.40001
1.40001
1.40001
1.40001
1.40001
1.40001
1.40001
1.40001
1.40001
1.40001
1.40001
1.40001
1.40001
1.40001
1.40001
1.40001
1.40001
1.40001
1.40001
1.40001
1.40001
1.40001
1.40001
1.40001
1.40001
1.40001
1.40001
1.40001
1.40001
1.40001
1.40001
1.40001
1.40001
1.40001
1.40001
1.40001
1.40001
1.40001
1.40001
1.40001
1.40001
1.40001
1.40001
1.40001
1.40001
1.40001
1.40001
1.40001
1.40001
1.40001
1.40001
1.40001
1.40001
1.40001
1.40001
1.40001
1.40001
1.40001
1.40001
1.40001
1.40001
1.40001
1.40001
1.40001
1.40001
1.40001
1.40001
1.40001
1.40001
1.40001
1.40001
1.40001
1.40001
1.40001
1.40001
1.40001
1.40001
1.40001
1.40001
1.40001
1.40001
1.40001
1.40001
3.93795
5.51596
5.50172
5.49228
5.50489
5.52852
5.56542
5.6086
5.64003
5.64736
5.63615
5.62541
5.61761
5.61394
5.61717
5.62618
5.64298
5.66722
5.68948
5.70021
5.70109
5.69355
5.6786
5.66101
5.65039
5.65075
5.66386
5.6944
5.7352
5.7779
5.81064
5.82949
5.83593
5.83047
5.81468
5.79475
5.77853
5.77227
5.7769
5.79351
5.81755
5.84293
5.86147
5.86901
5.86861
5.86291
5.85256
5.83884
5.82298
5.8092
5.80427
5.80668
5.82195
5.84275
5.86716
5.88803
5.89847
5.89939
5.89569
5.89139
5.88887
5.88457
5.87234
5.84856
5.8128
5.76828
5.71995
5.67179
5.62374
5.57103
5.50603
5.42293
5.32277
5.21547
5.11692
5.04133
4.99533
4.975
4.96901
1.40001
1.40001
1.40001
1.40001
1.40001
1.40001
1.40001
1.40001
1.40001
1.40001
1.40001
1.40001
1.40001
1.40001
1.40001
1.40001
1.40001
1.40001
1.40001
1.40001
1.40001
1.40001
1.40001
1.40001
1.40001
1.40001
1.40001
1.40001
1.40001
1.40001
1.40001
1.40001
1.40001
1.40001
1.40001
1.40001
1.40001
1.40001
1.40001
1.40001
1.40001
1.40001
1.40001
1.40001
1.40001
1.40001
1.40001
1.40001
1.40001
1.40001
1.40001
1.40001
1.40001
1.40001
1.40001
1.40001
1.40001
1.40001
1.40001
1.40001
1.40001
1.40001
1.40001
1.40001
1.40001
1.40001
1.40001
1.40001
1.40001
1.40001
1.40001
1.40001
1.40001
1.40001
1.40001
1.40001
1.40001
1.40001
1.40001
1.40001
1.40001
1.40001
1.40001
1.40001
1.40001
1.40001
1.40001
1.40001
1.40001
1.40001
1.40001
1.40001
1.40001
1.40001
1.40001
1.40001
1.40001
1.40001
1.40001
1.40001
1.40001
1.40001
1.40001
1.40001
1.40001
1.40001
1.40001
1.40001
1.40001
1.40001
1.40001
1.40001
1.40001
3.87438
5.50763
5.49987
5.49209
5.50502
5.52732
5.56298
5.60682
5.63789
5.64451
5.63504
5.62601
5.61808
5.61428
5.61664
5.62451
5.64094
5.66428
5.68648
5.69755
5.69883
5.69178
5.67706
5.65989
5.65036
5.65136
5.66461
5.69495
5.73549
5.77775
5.80992
5.82812
5.83408
5.82856
5.81316
5.79376
5.77796
5.77199
5.77681
5.79325
5.8169
5.84171
5.85959
5.8667
5.86614
5.86056
5.85057
5.83739
5.82207
5.80886
5.80436
5.80684
5.82194
5.84238
5.86642
5.88692
5.89688
5.89742
5.89368
5.88968
5.88757
5.88363
5.8716
5.84778
5.81178
5.7668
5.71783
5.66864
5.61925
5.56485
5.49796
5.41323
5.31243
5.206
5.10961
5.03645
4.99219
4.97249
4.96642
1.40001
1.40001
1.40001
1.40001
1.40001
1.40001
1.40001
1.40001
1.40001
1.40001
1.40001
1.40001
1.40001
1.40001
1.40001
1.40001
1.40001
1.40001
1.40001
1.40001
1.40001
1.40001
1.40001
1.40001
1.40001
1.40001
1.40001
1.40001
1.40001
1.40001
1.40001
1.40001
1.40001
1.40001
1.40001
1.40001
1.40001
1.40001
1.40001
1.40001
1.40001
1.40001
1.40001
1.40001
1.40001
1.40001
1.40001
1.40001
1.40001
1.40001
1.40001
1.40001
1.40001
1.40001
1.40001
1.40001
1.40001
1.40001
1.40001
1.40001
1.40001
1.40001
1.40001
1.40001
1.40001
1.40001
1.40001
1.40001
1.40001
1.40001
1.40001
1.40001
1.40001
1.40001
1.40001
1.40001
1.40001
1.40001
1.40001
1.40001
1.40001
1.40001
1.40001
1.40001
1.40001
1.40001
1.40001
1.40001
1.40001
1.40001
1.40001
1.40001
1.40001
1.40001
1.40001
1.40001
1.40001
1.40001
1.40001
1.40001
1.40001
1.40001
1.40001
1.40001
1.40001
1.40001
1.40001
1.40001
1.40001
1.40001
1.40001
1.40001
1.40001
3.7991
5.49365
5.50014
5.49313
5.50586
5.52657
5.56071
5.60521
5.63559
5.64093
5.63345
5.62618
5.61833
5.61466
5.61637
5.62313
5.63906
5.66118
5.68305
5.69446
5.69621
5.68973
5.67532
5.65874
5.65065
5.65248
5.66597
5.69592
5.73602
5.7776
5.80899
5.8264
5.83179
5.82626
5.81139
5.79269
5.77747
5.77182
5.77675
5.79289
5.81603
5.84017
5.85732
5.86394
5.8632
5.85777
5.84822
5.83572
5.82113
5.80869
5.80469
5.80728
5.82207
5.84196
5.86549
5.88555
5.89503
5.89523
5.89159
5.88801
5.88637
5.88275
5.87078
5.84678
5.81047
5.76514
5.71576
5.66596
5.61549
5.5596
5.49099
5.4047
5.30318
5.19739
5.10282
5.03181
4.98912
4.96996
4.96382
1.40001
1.40001
1.40001
1.40001
1.40001
1.40001
1.40001
1.40001
1.40001
1.40001
1.40001
1.40001
1.40001
1.40001
1.40001
1.40001
1.40001
1.40001
1.40001
1.40001
1.40001
1.40001
1.40001
1.40001
1.40001
1.40001
1.40001
1.40001
1.40001
1.40001
1.40001
1.40001
1.40001
1.40001
1.40001
1.40001
1.40001
1.40001
1.40001
1.40001
1.40001
1.40001
1.40001
1.40001
1.40001
1.40001
1.40001
1.40001
1.40001
1.40001
1.40001
1.40001
1.40001
1.40001
1.40001
1.40001
1.40001
1.40001
1.40001
1.40001
1.40001
1.40001
1.40001
1.40001
1.40001
1.40001
1.40001
1.40001
1.40001
1.40001
1.40001
1.40001
1.40001
1.40001
1.40001
1.40001
1.40001
1.40001
1.40001
1.40001
1.40001
1.40001
1.40001
1.40001
1.40001
1.40001
1.40001
1.40001
1.40001
1.40001
1.40001
1.40001
1.40001
1.40001
1.40001
1.40001
1.40001
1.40001
1.40001
1.40001
1.40001
1.40001
1.40001
1.40001
1.40001
1.40001
1.40001
1.40001
1.40001
1.40001
1.40001
1.40001
1.40001
3.71348
5.47672
5.50105
5.49477
5.50765
5.5267
5.55885
5.60341
5.63285
5.63711
5.63154
5.62514
5.61813
5.61513
5.61639
5.62201
5.63725
5.65782
5.67911
5.69102
5.69335
5.68747
5.67346
5.6579
5.65148
5.6542
5.66808
5.69739
5.73674
5.77736
5.80776
5.82429
5.82907
5.82356
5.80935
5.7915
5.77705
5.7718
5.7768
5.79248
5.81493
5.83827
5.85462
5.86073
5.85982
5.85457
5.84553
5.83382
5.8201
5.80865
5.80531
5.80804
5.82238
5.84157
5.86438
5.88385
5.89281
5.89275
5.88936
5.8864
5.8853
5.88194
5.86993
5.84568
5.80901
5.76335
5.71367
5.66359
5.61255
5.55555
5.48555
5.39796
5.2958
5.19043
5.09724
5.02787
4.98636
4.96755
4.96133
1.40001
1.40001
1.40001
1.40001
1.40001
1.40001
1.40001
1.40001
1.40001
1.40001
1.40001
1.40001
1.40001
1.40001
1.40001
1.40001
1.40001
1.40001
1.40001
1.40001
1.40001
1.40001
1.40001
1.40001
1.40001
1.40001
1.40001
1.40001
1.40001
1.40001
1.40001
1.40001
1.40001
1.40001
1.40001
1.40001
1.40001
1.40001
1.40001
1.40001
1.40001
1.40001
1.40001
1.40001
1.40001
1.40001
1.40001
1.40001
1.40001
1.40001
1.40001
1.40001
1.40001
1.40001
1.40001
1.40001
1.40001
1.40001
1.40001
1.40001
1.40001
1.40001
1.40001
1.40001
1.40001
1.40001
1.40001
1.40001
1.40001
1.40001
1.40001
1.40001
1.40001
1.40001
1.40001
1.40001
1.40001
1.40001
1.40001
1.40001
1.40001
1.40001
1.40001
1.40001
1.40001
1.40001
1.40001
1.40001
1.40001
1.40001
1.40001
1.40001
1.40001
1.40001
1.40001
1.40001
1.40001
1.40001
1.40001
1.40001
1.40001
1.40001
1.40001
1.40001
1.40001
1.40001
1.40001
1.40001
1.40001
1.40001
1.40001
1.40001
1.40001
3.61866
5.45612
5.50126
5.49709
5.51095
5.52839
5.55806
5.60141
5.62919
5.63303
5.62875
5.62248
5.61752
5.61554
5.61653
5.62105
5.63529
5.65419
5.67481
5.68737
5.69035
5.68496
5.67156
5.65775
5.65294
5.65653
5.67089
5.6993
5.73761
5.77701
5.80626
5.82186
5.82602
5.82053
5.807
5.79015
5.77664
5.77188
5.77694
5.79199
5.81353
5.83594
5.85145
5.85707
5.85607
5.85107
5.84255
5.83166
5.81892
5.80879
5.80624
5.80914
5.82289
5.8412
5.86305
5.88174
5.89013
5.88988
5.88691
5.88481
5.88436
5.88121
5.86905
5.84442
5.80738
5.76145
5.71168
5.66146
5.6102
5.55263
5.4817
5.39317
5.29053
5.18541
5.0931
5.02475
4.98398
4.96532
4.95901
1.40001
1.40001
1.40001
1.40001
1.40001
1.40001
1.40001
1.40001
1.40001
1.40001
1.40001
1.40001
1.40001
1.40001
1.40001
1.40001
1.40001
1.40001
1.40001
1.40001
1.40001
1.40001
1.40001
1.40001
1.40001
1.40001
1.40001
1.40001
1.40001
1.40001
1.40001
1.40001
1.40001
1.40001
1.40001
1.40001
1.40001
1.40001
1.40001
1.40001
1.40001
1.40001
1.40001
1.40001
1.40001
1.40001
1.40001
1.40001
1.40001
1.40001
1.40001
1.40001
1.40001
1.40001
1.40001
1.40001
1.40001
1.40001
1.40001
1.40001
1.40001
1.40001
1.40001
1.40001
1.40001
1.40001
1.40001
1.40001
1.40001
1.40001
1.40001
1.40001
1.40001
1.40001
1.40001
1.40001
1.40001
1.40001
1.40001
1.40001
1.40001
1.40001
1.40001
1.40001
1.40001
1.40001
1.40001
1.40001
1.40001
1.40001
1.40001
1.40001
1.40001
1.40001
1.40001
1.40001
1.40001
1.40001
1.40001
1.40001
1.40001
1.40001
1.40001
1.40001
1.40001
1.40001
1.40001
1.40001
1.40001
1.40001
1.40001
1.40001
1.40001
3.51506
5.42915
5.50107
5.50144
5.51637
5.53199
5.55884
5.59879
5.62406
5.62775
5.62444
5.61895
5.61681
5.61607
5.61678
5.62019
5.63258
5.65008
5.67029
5.68356
5.68711
5.68208
5.66977
5.65889
5.65507
5.65951
5.67428
5.70147
5.73841
5.77641
5.80445
5.81917
5.82276
5.81728
5.8044
5.78863
5.7762
5.77201
5.77712
5.79138
5.81181
5.83312
5.84777
5.85298
5.85203
5.84738
5.83939
5.82929
5.81756
5.80915
5.80748
5.81048
5.82358
5.84088
5.86152
5.87915
5.88691
5.88655
5.88419
5.88319
5.8835
5.88054
5.86814
5.84302
5.80555
5.75944
5.70973
5.65962
5.60825
5.55037
5.47894
5.38994
5.28703
5.18202
5.09014
5.02228
4.98183
4.96311
4.95671
1.40001
1.40001
1.40001
1.40001
1.40001
1.40001
1.40001
1.40001
1.40001
1.40001
1.40001
1.40001
1.40001
1.40001
1.40001
1.40001
1.40001
1.40001
1.40001
1.40001
1.40001
1.40001
1.40001
1.40001
1.40001
1.40001
1.40001
1.40001
1.40001
1.40001
1.40001
1.40001
1.40001
1.40001
1.40001
1.40001
1.40001
1.40001
1.40001
1.40001
1.40001
1.40001
1.40001
1.40001
1.40001
1.40001
1.40001
1.40001
1.40001
1.40001
1.40001
1.40001
1.40001
1.40001
1.40001
1.40001
1.40001
1.40001
1.40001
1.40001
1.40001
1.40001
1.40001
1.40001
1.40001
1.40001
1.40001
1.40001
1.40001
1.40001
1.40001
1.40001
1.40001
1.40001
1.40001
1.40001
1.40001
1.40001
1.40001
1.40001
1.40001
1.40001
1.40001
1.40001
1.40001
1.40001
1.40001
1.40001
1.40001
1.40001
1.40001
1.40001
1.40001
1.40001
1.40001
1.40001
1.40001
1.40001
1.40001
1.40001
1.40001
1.40001
1.40001
1.40001
1.40001
1.40001
1.40001
1.40001
1.40001
1.40001
1.40001
1.40001
1.40001
3.40403
5.39356
5.50219
5.50918
5.52333
5.5364
5.56017
5.59465
5.61694
5.62104
5.61879
5.61557
5.61639
5.61696
5.61703
5.61892
5.62886
5.64523
5.6656
5.67957
5.68352
5.67888
5.66841
5.66144
5.65811
5.66321
5.678
5.70354
5.73886
5.77544
5.80231
5.81626
5.81938
5.81393
5.80167
5.78703
5.77574
5.77211
5.77722
5.79055
5.80965
5.82973
5.84356
5.84848
5.84777
5.8436
5.83617
5.82683
5.81609
5.80975
5.8089
5.81197
5.82441
5.84059
5.8598
5.87609
5.88311
5.88276
5.88114
5.88143
5.88267
5.87989
5.86722
5.84154
5.80358
5.75731
5.70779
5.65795
5.60664
5.54848
5.47671
5.38741
5.28439
5.17945
5.08776
5.02007
4.97969
4.96077
4.9543
1.40001
1.40001
1.40001
1.40001
1.40001
1.40001
1.40001
1.40001
1.40001
1.40001
1.40001
1.40001
1.40001
1.40001
1.40001
1.40001
1.40001
1.40001
1.40001
1.40001
1.40001
1.40001
1.40001
1.40001
1.40001
1.40001
1.40001
1.40001
1.40001
1.40001
1.40001
1.40001
1.40001
1.40001
1.40001
1.40001
1.40001
1.40001
1.40001
1.40001
1.40001
1.40001
1.40001
1.40001
1.40001
1.40001
1.40001
1.40001
1.40001
1.40001
1.40001
1.40001
1.40001
1.40001
1.40001
1.40001
1.40001
1.40001
1.40001
1.40001
1.40001
1.40001
1.40001
1.40001
1.40001
1.40001
1.40001
1.40001
1.40001
1.40001
1.40001
1.40001
1.40001
1.40001
1.40001
1.40001
1.40001
1.40001
1.40001
1.40001
1.40001
1.40001
1.40001
1.40001
1.40001
1.40001
1.40001
1.40001
1.40001
1.40001
1.40001
1.40001
1.40001
1.40001
1.40001
1.40001
1.40001
1.40001
1.40001
1.40001
1.40001
1.40001
1.40001
1.40001
1.40001
1.40001
1.40001
1.40001
1.40001
1.40001
1.40001
1.40001
1.40001
3.28681
5.35213
5.5067
5.52051
5.52977
5.53915
5.56037
5.58825
5.60782
5.61286
5.61251
5.61347
5.61677
5.61822
5.6169
5.61679
5.62393
5.63942
5.6606
5.6752
5.6796
5.67587
5.66785
5.66469
5.66255
5.66755
5.68161
5.70517
5.73878
5.77396
5.79976
5.81311
5.8159
5.81059
5.79896
5.7855
5.77532
5.77214
5.77711
5.78935
5.80691
5.82568
5.83877
5.84362
5.84331
5.83975
5.83296
5.82443
5.81472
5.81052
5.81042
5.81351
5.82526
5.84026
5.85788
5.87261
5.8788
5.87851
5.87776
5.8795
5.88173
5.87916
5.86622
5.83995
5.8015
5.75508
5.70581
5.65637
5.6053
5.54706
5.47498
5.3854
5.28229
5.17734
5.08569
5.01798
4.97753
4.9583
4.95171
1.40001
1.40001
1.40001
1.40001
1.40001
1.40001
1.40001
1.40001
1.40001
1.40001
1.40001
1.40001
1.40001
1.40001
1.40001
1.40001
1.40001
1.40001
1.40001
1.40001
1.40001
1.40001
1.40001
1.40001
1.40001
1.40001
1.40001
1.40001
1.40001
1.40001
1.40001
1.40001
1.40001
1.40001
1.40001
1.40001
1.40001
1.40001
1.40001
1.40001
1.40001
1.40001
1.40001
1.40001
1.40001
1.40001
1.40001
1.40001
1.40001
1.40001
1.40001
1.40001
1.40001
1.40001
1.40001
1.40001
1.40001
1.40001
1.40001
1.40001
1.40001
1.40001
1.40001
1.40001
1.40001
1.40001
1.40001
1.40001
1.40001
1.40001
1.40001
1.40001
1.40001
1.40001
1.40001
1.40001
1.40001
1.40001
1.40001
1.40001
1.40001
1.40001
1.40001
1.40001
1.40001
1.40001
1.40001
1.40001
1.40001
1.40001
1.40001
1.40001
1.40001
1.40001
1.40001
1.40001
1.40001
1.40001
1.40001
1.40001
1.40001
1.40001
1.40001
1.40001
1.40001
1.40001
1.40001
1.40001
1.40001
1.40001
1.40001
1.40001
1.40001
3.16255
5.31172
5.51423
5.53153
5.53367
5.53888
5.55859
5.58008
5.59771
5.6037
5.60712
5.61327
5.6178
5.61926
5.61596
5.61348
5.61764
5.63268
5.65521
5.67024
5.67543
5.67377
5.66951
5.66816
5.6676
5.67228
5.68486
5.70621
5.73802
5.7718
5.79663
5.80961
5.81229
5.80731
5.79651
5.78424
5.77502
5.77209
5.77666
5.78761
5.80347
5.8209
5.8334
5.83842
5.83867
5.83578
5.82981
5.82223
5.81366
5.81139
5.81205
5.81505
5.82595
5.83976
5.85574
5.8688
5.87412
5.87391
5.87411
5.87736
5.88057
5.87823
5.86505
5.83823
5.79929
5.75273
5.70376
5.65482
5.60416
5.54609
5.47396
5.38429
5.28112
5.17608
5.08424
5.01625
4.97547
4.95562
4.94887
1.40001
1.40001
1.40001
1.40001
1.40001
1.40001
1.40001
1.40001
1.40001
1.40001
1.40001
1.40001
1.40001
1.40001
1.40001
1.40001
1.40001
1.40001
1.40001
1.40001
1.40001
1.40001
1.40001
1.40001
1.40001
1.40001
1.40001
1.40001
1.40001
1.40001
1.40001
1.40001
1.40001
1.40001
1.40001
1.40001
1.40001
1.40001
1.40001
1.40001
1.40001
1.40001
1.40001
1.40001
1.40001
1.40001
1.40001
1.40001
1.40001
1.40001
1.40001
1.40001
1.40001
1.40001
1.40001
1.40001
1.40001
1.40001
1.40001
1.40001
1.40001
1.40001
1.40001
1.40001
1.40001
1.40001
1.40001
1.40001
1.40001
1.40001
1.40001
1.40001
1.40001
1.40001
1.40001
1.40001
1.40001
1.40001
1.40001
1.40001
1.40001
1.40001
1.40001
1.40001
1.40001
1.40001
1.40001
1.40001
1.40001
1.40001
1.40001
1.40001
1.40001
1.40001
1.40001
1.40001
1.40001
1.40001
1.40001
1.40001
1.40001
1.40001
1.40001
1.40001
1.40001
1.40001
1.40001
1.40001
1.40001
1.40001
1.40001
1.40001
1.40001
3.03096
5.27509
5.52245
5.53906
5.53796
5.53824
5.5546
5.56976
5.58688
5.59489
5.60401
5.61471
5.6191
5.6196
5.61388
5.60897
5.61041
5.62533
5.64927
5.66456
5.6713
5.67272
5.67343
5.67229
5.67291
5.67704
5.68753
5.70656
5.73646
5.76887
5.79289
5.8057
5.80851
5.80412
5.79447
5.78348
5.77489
5.77194
5.77577
5.78524
5.79926
5.81538
5.82746
5.83286
5.83376
5.83163
5.82668
5.82031
5.81303
5.81245
5.81383
5.81648
5.82636
5.83897
5.8533
5.86472
5.86921
5.86917
5.87033
5.87498
5.8791
5.87698
5.86361
5.83629
5.79692
5.75026
5.7016
5.65321
5.60312
5.54549
5.4736
5.38407
5.28091
5.17574
5.08345
5.01484
4.97339
4.95267
4.94568
1.40001
1.40001
1.40001
1.40001
1.40001
1.40001
1.40001
1.40001
1.40001
1.40001
1.40001
1.40001
1.40001
1.40001
1.40001
1.40001
1.40001
1.40001
1.40001
1.40001
1.40001
1.40001
1.40001
1.40001
1.40001
1.40001
1.40001
1.40001
1.40001
1.40001
1.40001
1.40001
1.40001
1.40001
1.40001
1.40001
1.40001
1.40001
1.40001
1.40001
1.40001
1.40001
1.40001
1.40001
1.40001
1.40001
1.40001
1.40001
1.40001
1.40001
1.40001
1.40001
1.40001
1.40001
1.40001
1.40001
1.40001
1.40001
1.40001
1.40001
1.40001
1.40001
1.40001
1.40001
1.40001
1.40001
1.40001
1.40001
1.40001
1.40001
1.40001
1.40001
1.40001
1.40001
1.40001
1.40001
1.40001
1.40001
1.40001
1.40001
1.40001
1.40001
1.40001
1.40001
1.40001
1.40001
1.40001
1.40001
1.40001
1.40001
1.40001
1.40001
1.40001
1.40001
1.40001
1.40001
1.40001
1.40001
1.40001
1.40001
1.40001
1.40001
1.40001
1.40001
1.40001
1.40001
1.40001
1.40001
1.40001
1.40001
1.40001
1.40001
1.40001
2.89132
5.2414
5.53199
5.54145
5.54045
5.53745
5.5474
5.55655
5.57491
5.5882
5.60372
5.61695
5.6207
5.61879
5.61024
5.60333
5.60285
5.61759
5.64245
5.65853
5.66821
5.67298
5.67837
5.67776
5.67833
5.68131
5.68951
5.7061
5.73399
5.76504
5.78844
5.80132
5.80456
5.80105
5.79295
5.78328
5.77497
5.77163
5.77441
5.78219
5.79432
5.80917
5.821
5.82693
5.82854
5.82723
5.82345
5.8187
5.81294
5.81377
5.81572
5.81772
5.82647
5.83777
5.85044
5.86035
5.86421
5.86448
5.86657
5.87242
5.87727
5.87531
5.86177
5.83403
5.79433
5.74767
5.69934
5.65151
5.60206
5.54503
5.47367
5.38457
5.2816
5.17616
5.08322
5.01364
4.97124
4.94944
4.94218
1.40001
1.40001
1.40001
1.40001
1.40001
1.40001
1.40001
1.40001
1.40001
1.40001
1.40001
1.40001
1.40001
1.40001
1.40001
1.40001
1.40001
1.40001
1.40001
1.40001
1.40001
1.40001
1.40001
1.40001
1.40001
1.40001
1.40001
1.40001
1.40001
1.40001
1.40001
1.40001
1.40001
1.40001
1.40001
1.40001
1.40001
1.40001
1.40001
1.40001
1.40001
1.40001
1.40001
1.40001
1.40001
1.40001
1.40001
1.40001
1.40001
1.40001
1.40001
1.40001
1.40001
1.40001
1.40001
1.40001
1.40001
1.40001
1.40001
1.40001
1.40001
1.40001
1.40001
1.40001
1.40001
1.40001
1.40001
1.40001
1.40001
1.40001
1.40001
1.40001
1.40001
1.40001
1.40001
1.40001
1.40001
1.40001
1.40001
1.40001
1.40001
1.40001
1.40001
1.40001
1.40001
1.40001
1.40001
1.40001
1.40001
1.40001
1.40001
1.40001
1.40001
1.40001
1.40001
1.40001
1.40001
1.40001
1.40001
1.40001
1.40001
1.40001
1.40001
1.40001
1.40001
1.40001
1.40001
1.40001
1.40001
1.40001
1.40001
1.40001
1.40001
2.74849
5.20574
5.53699
5.5399
5.54059
5.53452
5.53757
5.54128
5.56266
5.58371
5.6054
5.61893
5.62211
5.61667
5.60518
5.59694
5.59551
5.60952
5.63485
5.65296
5.66683
5.67563
5.68382
5.68389
5.68344
5.68492
5.6907
5.70471
5.7306
5.76033
5.78331
5.7965
5.80051
5.79821
5.79203
5.78362
5.77526
5.77109
5.77253
5.77845
5.78869
5.80239
5.8141
5.82058
5.82293
5.8225
5.82006
5.81734
5.81355
5.81548
5.81763
5.81876
5.82622
5.83604
5.84703
5.85566
5.85917
5.85997
5.863
5.86978
5.87512
5.87314
5.8594
5.83134
5.79147
5.74493
5.697
5.64972
5.60092
5.54465
5.47409
5.38566
5.28299
5.17724
5.08339
5.01258
4.96902
4.946
4.93848
1.40001
1.40001
1.40001
1.40001
1.40001
1.40001
1.40001
1.40001
1.40001
1.40001
1.40001
1.40001
1.40001
1.40001
1.40001
1.40001
1.40001
1.40001
1.40001
1.40001
1.40001
1.40001
1.40001
1.40001
1.40001
1.40001
1.40001
1.40001
1.40001
1.40001
1.40001
1.40001
1.40001
1.40001
1.40001
1.40001
1.40001
1.40001
1.40001
1.40001
1.40001
1.40001
1.40001
1.40001
1.40001
1.40001
1.40001
1.40001
1.40001
1.40001
1.40001
1.40001
1.40001
1.40001
1.40001
1.40001
1.40001
1.40001
1.40001
1.40001
1.40001
1.40001
1.40001
1.40001
1.40001
1.40001
1.40001
1.40001
1.40001
1.40001
1.40001
1.40001
1.40001
1.40001
1.40001
1.40001
1.40001
1.40001
1.40001
1.40001
1.40001
1.40001
1.40001
1.40001
1.40001
1.40001
1.40001
1.40001
1.40001
1.40001
1.40001
1.40001
1.40001
1.40001
1.40001
1.40001
1.40001
1.40001
1.40001
1.40001
1.40001
1.40001
1.40001
1.40001
1.40001
1.40001
1.40001
1.40001
1.40001
1.40001
1.40001
1.40001
1.40001
2.61058
5.16229
5.53128
5.53958
5.54083
5.53184
5.52536
5.5264
5.55238
5.58087
5.60728
5.62051
5.62282
5.6136
5.59925
5.58975
5.58788
5.60119
5.62691
5.64902
5.66774
5.68082
5.68956
5.68994
5.68775
5.68759
5.69123
5.70252
5.72636
5.75481
5.77755
5.79127
5.79647
5.79566
5.79161
5.7844
5.7757
5.77025
5.77005
5.7741
5.78246
5.79517
5.80687
5.81386
5.81692
5.81742
5.81655
5.81622
5.81478
5.81755
5.81954
5.8196
5.82556
5.83366
5.84295
5.85059
5.8541
5.85574
5.85977
5.86719
5.87267
5.87044
5.85641
5.82811
5.78828
5.74207
5.69462
5.64789
5.59975
5.54433
5.47473
5.38714
5.28484
5.17871
5.08379
5.01157
4.96671
4.94244
4.93469
1.40001
1.40001
1.40001
1.40001
1.40001
1.40001
1.40001
1.40001
1.40001
1.40001
1.40001
1.40001
1.40001
1.40001
1.40001
1.40001
1.40001
1.40001
1.40001
1.40001
1.40001
1.40001
1.40001
1.40001
1.40001
1.40001
1.40001
1.40001
1.40001
1.40001
1.40001
1.40001
1.40001
1.40001
1.40001
1.40001
1.40001
1.40001
1.40001
1.40001
1.40001
1.40001
1.40001
1.40001
1.40001
1.40001
1.40001
1.40001
1.40001
1.40001
1.40001
1.40001
1.40001
1.40001
1.40001
1.40001
1.40001
1.40001
1.40001
1.40001
1.40001
1.40001
1.40001
1.40001
1.40001
1.40001
1.40001
1.40001
1.40001
1.40001
1.40001
1.40001
1.40001
1.40001
1.40001
1.40001
1.40001
1.40001
1.40001
1.40001
1.40001
1.40001
1.40001
1.40001
1.40001
1.40001
1.40001
1.40001
1.40001
1.40001
1.40001
1.40001
1.40001
1.40001
1.40001
1.40001
1.40001
1.40001
1.40001
1.40001
1.40001
1.40001
1.40001
1.40001
1.40001
1.40001
1.40001
1.40001
1.40001
1.40001
1.40001
1.40001
1.40001
2.47475
5.10053
5.53046
5.54121
5.53976
5.52656
5.51108
5.51335
5.54497
5.57963
5.60791
5.62166
5.62201
5.61013
5.59392
5.58184
5.57893
5.59252
5.62007
5.64761
5.67142
5.6872
5.69569
5.6955
5.6911
5.68915
5.69095
5.69953
5.72138
5.74864
5.77133
5.78579
5.7926
5.79353
5.79149
5.78536
5.77612
5.7692
5.76706
5.76915
5.77575
5.78764
5.79941
5.80686
5.81049
5.81197
5.81302
5.81536
5.81653
5.81991
5.82141
5.82022
5.82441
5.83054
5.83809
5.84506
5.849
5.85183
5.85694
5.86471
5.86998
5.86721
5.85273
5.82428
5.78472
5.73908
5.69225
5.6461
5.59862
5.54407
5.47551
5.38882
5.28691
5.18035
5.08422
5.01049
4.9643
4.93883
4.93095
1.40001
1.40001
1.40001
1.40001
1.40001
1.40001
1.40001
1.40001
1.40001
1.40001
1.40001
1.40001
1.40001
1.40001
1.40001
1.40001
1.40001
1.40001
1.40001
1.40001
1.40001
1.40001
1.40001
1.40001
1.40001
1.40001
1.40001
1.40001
1.40001
1.40001
1.40001
1.40001
1.40001
1.40001
1.40001
1.40001
1.40001