/*--------------------------------*- C++ -*----------------------------------*\
  =========                 |
  \\      /  F ield         | OpenFOAM: The Open Source CFD Toolbox
   \\    /   O peration     | Website:  https://openfoam.org
    \\  /    A nd           | Version:  7
     \\/     M anipulation  |
\*---------------------------------------------------------------------------*/
FoamFile
{
    version     2.0;
    format      ascii;
    class       volScalarField;
    location    "0.8";
    object      T;
}
// * * * * * * * * * * * * * * * * * * * * * * * * * * * * * * * * * * * * * //

dimensions      [0 0 0 1 0 0 0];

internalField   nonuniform List<scalar> 
258048
(
1
1
1
1
1
1
1
1
1
1
1
1
1
1
1
1
1
1
1
1
1
1
1
1
1
1
1
1
1
1
1
1
1
1
1
1
1
1
1
1
1
1
1
1
1
1
1
1
1
1
1
1
1
1
1
1
1
1
1
1
1
1
1
1
1
1
1
1
1
1
1
1
1
1
1
1
1
1
1
1
1
1
1
1
1
1
1
1
1
1
1
1
1
1
1
1
1
1
1
1
1
1
1
1
1
1
1
1
1
1
1
1
1.01299
2.32632
2.77847
2.801
2.79933
2.79664
2.7913
2.78763
2.78883
2.79396
2.80368
2.81417
2.82062
2.82056
2.81749
2.81257
2.80995
2.81251
2.82002
2.82914
2.83535
2.837
2.8349
2.83052
2.8262
2.8243
2.82525
2.82972
2.83708
2.84604
2.85527
2.86255
2.8673
2.8696
2.86928
2.86711
2.86396
2.86152
2.86077
2.86194
2.86605
2.87195
2.87826
2.88312
2.88573
2.88656
2.88606
2.88478
2.88276
2.88061
2.87919
2.87933
2.88094
2.88586
2.89267
2.90039
2.9074
2.91325
2.91846
2.92365
2.92949
2.93626
2.94308
2.94937
2.95548
2.9614
2.96768
2.97566
2.98773
3.0069
3.03649
3.07959
3.13832
3.2117
3.29357
3.37258
3.43615
3.47681
3.49582
3.50082
1
1
1
1
1
1
1
1
1
1
1
1
1
1
1
1
1
1
1
1
1
1
1
1
1
1
1
1
1
1
1
1
1
1
1
1
1
1
1
1
1
1
1
1
1
1
1
1
1
1
1
1
1
1
1
1
1
1
1
1
1
1
1
1
1
1
1
1
1
1
1
1
1
1
1
1
1
1
1
1
1
1
1
1
1
1
1
1
1
1
1
1
1
1
1
1
1
1
1
1
1
1
1
1
1
1
1
1
1
1
1
1
1.00713
2.32102
2.78041
2.80149
2.79982
2.79659
2.79102
2.78743
2.78869
2.79393
2.80379
2.8142
2.8207
2.82059
2.81744
2.81245
2.80983
2.81244
2.81998
2.82912
2.83533
2.83694
2.83481
2.83042
2.82615
2.82432
2.82529
2.82977
2.83711
2.84606
2.85527
2.86253
2.86726
2.86953
2.8692
2.86704
2.86392
2.86151
2.86078
2.86197
2.86608
2.87196
2.87825
2.88308
2.88566
2.88649
2.88599
2.88471
2.88271
2.88057
2.87916
2.87931
2.88095
2.88589
2.89269
2.90039
2.90738
2.91319
2.91838
2.92357
2.92944
2.93625
2.94311
2.94946
2.9556
2.96153
2.96778
2.97574
2.98781
3.00703
3.03671
3.07994
3.13877
3.2122
3.29402
3.37292
3.43634
3.47687
3.49579
3.50073
1
1
1
1
1
1
1
1
1
1
1
1
1
1
1
1
1
1
1
1
1
1
1
1
1
1
1
1
1
1
1
1
1
1
1
1
1
1
1
1
1
1
1
1
1
1
1
1
1
1
1
1
1
1
1
1
1
1
1
1
1
1
1
1
1
1
1
1
1
1
1
1
1
1
1
1
1
1
1
1
1
1
1
1
1
1
1
1
1
1
1
1
1
1
1
1
1
1
1
1
1
1
1
1
1
1
1
1
1
1
1
1
1.00065
2.31418
2.78512
2.80144
2.79976
2.79592
2.79002
2.78664
2.78814
2.79382
2.80403
2.81438
2.82079
2.82057
2.81725
2.81215
2.80958
2.81227
2.81988
2.82911
2.83531
2.83685
2.83469
2.83027
2.82606
2.82434
2.82536
2.82985
2.83719
2.84611
2.8553
2.86254
2.86722
2.86945
2.8691
2.86693
2.86384
2.86145
2.86076
2.86198
2.86609
2.87196
2.8782
2.88298
2.88553
2.88635
2.88586
2.8846
2.88261
2.88049
2.8791
2.87928
2.88094
2.88592
2.89272
2.90041
2.90735
2.91312
2.91827
2.92346
2.92938
2.93626
2.94321
2.94968
2.95588
2.96182
2.96805
2.97603
2.98819
3.00763
3.03764
3.08124
3.14038
3.21391
3.29556
3.37406
3.437
3.47714
3.49583
3.50067
1
1
1
1
1
1
1
1
1
1
1
1
1
1
1
1
1
1
1
1
1
1
1
1
1
1
1
1
1
1
1
1
1
1
1
1
1
1
1
1
1
1
1
1
1
1
1
1
1
1
1
1
1
1
1
1
1
1
1
1
1
1
1
1
1
1
1
1
1
1
1
1
1
1
1
1
1
1
1
1
1
1
1
1
1
1
1
1
1
1
1
1
1
1
1
1
1
1
1
1
1
1
1
1
1
1
1
1
1
1
1
1
1
2.30734
2.78958
2.80165
2.79939
2.79467
2.78835
2.78553
2.78754
2.79389
2.80454
2.81484
2.82094
2.8205
2.81686
2.81158
2.80912
2.81194
2.81968
2.82905
2.83526
2.83671
2.8345
2.83005
2.82593
2.82438
2.82548
2.82998
2.83732
2.84621
2.85536
2.86255
2.86717
2.86934
2.86894
2.86679
2.86373
2.86138
2.86073
2.86199
2.86612
2.87196
2.87814
2.88285
2.88535
2.88615
2.88567
2.88443
2.88248
2.88039
2.87904
2.87926
2.88096
2.88597
2.89277
2.90042
2.9073
2.91299
2.9181
2.9233
2.92929
2.93625
2.94334
2.94994
2.95624
2.96222
2.96847
2.97652
2.9889
3.00874
3.03935
3.08367
3.14342
3.21722
3.29862
3.37638
3.43839
3.47776
3.496
3.50066
1
1
1
1
1
1
1
1
1
1
1
1
1
1
1
1
1
1
1
1
1
1
1
1
1
1
1
1
1
1
1
1
1
1
1
1
1
1
1
1
1
1
1
1
1
1
1
1
1
1
1
1
1
1
1
1
1
1
1
1
1
1
1
1
1
1
1
1
1
1
1
1
1
1
1
1
1
1
1
1
1
1
1
1
1
1
1
1
1
1
1
1
1
1
1
1
1
1
1
1
1
1
1
1
1
1
1
1
1
1
1
1
1
2.29832
2.79366
2.80137
2.79839
2.793
2.78651
2.78452
2.78711
2.79418
2.80527
2.8155
2.82102
2.82024
2.81617
2.81073
2.80847
2.81149
2.81943
2.82899
2.83519
2.83651
2.83426
2.82975
2.82573
2.8244
2.82562
2.83013
2.83749
2.84634
2.85544
2.86256
2.86709
2.86918
2.86874
2.8666
2.86359
2.86129
2.86069
2.862
2.86614
2.87196
2.87806
2.88267
2.88509
2.88587
2.88541
2.88421
2.88232
2.88028
2.87898
2.87925
2.881
2.88603
2.89281
2.90041
2.90721
2.91282
2.91788
2.92308
2.92915
2.93622
2.94344
2.95018
2.95658
2.96259
2.96887
2.97706
2.98976
3.01019
3.04167
3.08702
3.14771
3.22198
3.30308
3.37983
3.4405
3.47873
3.49633
3.50074
1
1
1
1
1
1
1
1
1
1
1
1
1
1
1
1
1
1
1
1
1
1
1
1
1
1
1
1
1
1
1
1
1
1
1
1
1
1
1
1
1
1
1
1
1
1
1
1
1
1
1
1
1
1
1
1
1
1
1
1
1
1
1
1
1
1
1
1
1
1
1
1
1
1
1
1
1
1
1
1
1
1
1
1
1
1
1
1
1
1
1
1
1
1
1
1
1
1
1
1
1
1
1
1
1
1
1
1
1
1
1
1
1
2.28636
2.79705
2.80094
2.79706
2.7911
2.78474
2.78363
2.78678
2.7946
2.8062
2.81633
2.82105
2.81981
2.81525
2.80969
2.80769
2.81094
2.81909
2.82884
2.835
2.83616
2.83389
2.82935
2.82546
2.82441
2.82579
2.83032
2.83767
2.84648
2.85552
2.86254
2.86696
2.86895
2.86849
2.86639
2.86344
2.86118
2.86063
2.86199
2.86614
2.87193
2.87794
2.88242
2.88475
2.8855
2.88507
2.88392
2.88211
2.88015
2.87893
2.87927
2.88106
2.8861
2.89284
2.90036
2.90706
2.91259
2.9176
2.92281
2.92895
2.93612
2.94346
2.95032
2.95678
2.96282
2.96913
2.97747
2.99054
3.01164
3.04414
3.09076
3.15264
3.22757
3.30843
3.38402
3.4431
3.47997
3.49677
3.50089
1
1
1
1
1
1
1
1
1
1
1
1
1
1
1
1
1
1
1
1
1
1
1
1
1
1
1
1
1
1
1
1
1
1
1
1
1
1
1
1
1
1
1
1
1
1
1
1
1
1
1
1
1
1
1
1
1
1
1
1
1
1
1
1
1
1
1
1
1
1
1
1
1
1
1
1
1
1
1
1
1
1
1
1
1
1
1
1
1
1
1
1
1
1
1
1
1
1
1
1
1
1
1
1
1
1
1
1
1
1
1
1
1
2.2713
2.79929
2.80074
2.79574
2.78926
2.78315
2.78291
2.78666
2.79527
2.80742
2.81736
2.82092
2.8191
2.81401
2.80841
2.80679
2.81032
2.81869
2.82861
2.83469
2.83568
2.8334
2.82886
2.82513
2.8244
2.82601
2.83057
2.83785
2.84663
2.85557
2.86245
2.86673
2.86863
2.86816
2.86613
2.86326
2.86106
2.86055
2.86196
2.86611
2.87185
2.87775
2.88209
2.88432
2.88503
2.88463
2.88356
2.88186
2.88001
2.87889
2.87932
2.88116
2.88617
2.89285
2.90027
2.90684
2.91227
2.91723
2.92246
2.92868
2.93594
2.94338
2.95032
2.95684
2.96289
2.96921
2.97765
2.99105
3.01281
3.04632
3.09424
3.15741
3.23314
3.31388
3.38836
3.44581
3.48127
3.49725
3.50107
1
1
1
1
1
1
1
1
1
1
1
1
1
1
1
1
1
1
1
1
1
1
1
1
1
1
1
1
1
1
1
1
1
1
1
1
1
1
1
1
1
1
1
1
1
1
1
1
1
1
1
1
1
1
1
1
1
1
1
1
1
1
1
1
1
1
1
1
1
1
1
1
1
1
1
1
1
1
1
1
1
1
1
1
1
1
1
1
1
1
1
1
1
1
1
1
1
1
1
1
1
1
1
1
1
1
1
1
1
1
1
1
1
2.25264
2.80078
2.80078
2.79453
2.78767
2.78172
2.78219
2.78675
2.7962
2.80883
2.81843
2.8205
2.8181
2.81251
2.807
2.80591
2.80974
2.81828
2.8283
2.83423
2.83501
2.83275
2.82823
2.82474
2.82441
2.8263
2.83087
2.83805
2.84675
2.85557
2.86228
2.86639
2.86819
2.86773
2.8658
2.86304
2.86093
2.86047
2.86192
2.86604
2.8717
2.87747
2.88166
2.88378
2.88445
2.8841
2.88312
2.88156
2.87986
2.87887
2.8794
2.88128
2.88624
2.89282
2.90011
2.90654
2.91186
2.91677
2.92202
2.92832
2.93566
2.94316
2.95017
2.95673
2.96279
2.96912
2.97762
2.99124
3.01353
3.04791
3.09699
3.16137
3.23791
3.31862
3.39218
3.44822
3.48243
3.49768
3.50123
1
1
1
1
1
1
1
1
1
1
1
1
1
1
1
1
1
1
1
1
1
1
1
1
1
1
1
1
1
1
1
1
1
1
1
1
1
1
1
1
1
1
1
1
1
1
1
1
1
1
1
1
1
1
1
1
1
1
1
1
1
1
1
1
1
1
1
1
1
1
1
1
1
1
1
1
1
1
1
1
1
1
1
1
1
1
1
1
1
1
1
1
1
1
1
1
1
1
1
1
1
1
1
1
1
1
1
1
1
1
1
1
1
2.23044
2.80192
2.80077
2.79329
2.78611
2.78018
2.78119
2.78697
2.7974
2.81033
2.81939
2.81988
2.81688
2.8108
2.80552
2.80512
2.80923
2.81786
2.82787
2.83362
2.83416
2.83191
2.82751
2.8244
2.82447
2.82669
2.83125
2.83826
2.84683
2.85547
2.86198
2.86592
2.86762
2.8672
2.86539
2.86277
2.86076
2.86037
2.86186
2.86594
2.87148
2.8771
2.88112
2.88313
2.88377
2.88348
2.8826
2.88119
2.87966
2.87885
2.87951
2.88145
2.88631
2.89277
2.89988
2.90615
2.91134
2.9162
2.92149
2.92789
2.93531
2.94283
2.94985
2.95642
2.96247
2.96882
2.9774
2.99118
3.0138
3.04881
3.09878
3.16411
3.24133
3.32211
3.39502
3.45002
3.4833
3.49797
3.50132
1
1
1
1
1
1
1
1
1
1
1
1
1
1
1
1
1
1
1
1
1
1
1
1
1
1
1
1
1
1
1
1
1
1
1
1
1
1
1
1
1
1
1
1
1
1
1
1
1
1
1
1
1
1
1
1
1
1
1
1
1
1
1
1
1
1
1
1
1
1
1
1
1
1
1
1
1
1
1
1
1
1
1
1
1
1
1
1
1
1
1
1
1
1
1
1
1
1
1
1
1
1
1
1
1
1
1
1
1
1
1
1
1
2.20504
2.80286
2.80042
2.79175
2.78422
2.77835
2.77993
2.78722
2.79883
2.8118
2.81995
2.81934
2.81539
2.80894
2.80406
2.8044
2.80884
2.81744
2.82732
2.83284
2.83312
2.83087
2.82669
2.82418
2.82466
2.82718
2.83171
2.83847
2.84685
2.85525
2.86155
2.86534
2.86696
2.86658
2.8649
2.86244
2.86056
2.86024
2.86179
2.86579
2.87118
2.8766
2.88046
2.88236
2.883
2.88279
2.88201
2.88077
2.87941
2.87884
2.87967
2.88165
2.88639
2.8927
2.89959
2.90565
2.91069
2.91549
2.92087
2.92739
2.93489
2.94242
2.9494
2.95592
2.96193
2.96828
2.97695
2.9909
3.01375
3.04909
3.09959
3.16556
3.24327
3.32414
3.39671
3.4511
3.48381
3.49811
3.50134
1
1
1
1
1
1
1
1
1
1
1
1
1
1
1
1
1
1
1
1
1
1
1
1
1
1
1
1
1
1
1
1
1
1
1
1
1
1
1
1
1
1
1
1
1
1
1
1
1
1
1
1
1
1
1
1
1
1
1
1
1
1
1
1
1
1
1
1
1
1
1
1
1
1
1
1
1
1
1
1
1
1
1
1
1
1
1
1
1
1
1
1
1
1
1
1
1
1
1
1
1
1
1
1
1
1
1
1
1
1
1
1
1
2.17668
2.80346
2.7996
2.78976
2.78181
2.77636
2.77863
2.78742
2.80036
2.81322
2.82004
2.81845
2.81373
2.80726
2.80277
2.80368
2.80851
2.81703
2.82665
2.83187
2.83187
2.82961
2.8258
2.82419
2.82505
2.82781
2.83223
2.83865
2.84676
2.85489
2.86099
2.86465
2.86621
2.86588
2.86434
2.86204
2.8603
2.86009
2.86169
2.8656
2.87078
2.87598
2.87965
2.88148
2.88215
2.88204
2.88136
2.88028
2.8791
2.87883
2.87987
2.88187
2.88647
2.8926
2.89923
2.90503
2.9099
2.91466
2.92015
2.92684
2.93443
2.94194
2.94885
2.95528
2.9612
2.96752
2.97626
2.99039
3.01345
3.04898
3.09973
3.166
3.24398
3.32499
3.39747
3.4516
3.48404
3.49812
3.50126
1
1
1
1
1
1
1
1
1
1
1
1
1
1
1
1
1
1
1
1
1
1
1
1
1
1
1
1
1
1
1
1
1
1
1
1
1
1
1
1
1
1
1
1
1
1
1
1
1
1
1
1
1
1
1
1
1
1
1
1
1
1
1
1
1
1
1
1
1
1
1
1
1
1
1
1
1
1
1
1
1
1
1
1
1
1
1
1
1
1
1
1
1
1
1
1
1
1
1
1
1
1
1
1
1
1
1
1
1
1
1
1
1
2.14587
2.80326
2.7982
2.78737
2.77896
2.77443
2.7775
2.7876
2.80187
2.81442
2.81953
2.81717
2.81208
2.80582
2.80175
2.80307
2.80811
2.81656
2.82584
2.83067
2.83041
2.82814
2.82491
2.82443
2.82568
2.82859
2.83281
2.83878
2.84654
2.85438
2.86028
2.86387
2.86541
2.86515
2.86373
2.86161
2.86003
2.8599
2.86156
2.86533
2.87026
2.87521
2.8787
2.88047
2.88122
2.88124
2.88067
2.87977
2.87874
2.87883
2.88009
2.88207
2.88656
2.89249
2.89881
2.90431
2.90899
2.91372
2.91934
2.92623
2.93393
2.94142
2.94823
2.95453
2.96032
2.96657
2.97535
2.98961
3.01285
3.04855
3.09945
3.16587
3.24404
3.32519
3.39771
3.45177
3.48406
3.49796
3.50102
1
1
1
1
1
1
1
1
1
1
1
1
1
1
1
1
1
1
1
1
1
1
1
1
1
1
1
1
1
1
1
1
1
1
1
1
1
1
1
1
1
1
1
1
1
1
1
1
1
1
1
1
1
1
1
1
1
1
1
1
1
1
1
1
1
1
1
1
1
1
1
1
1
1
1
1
1
1
1
1
1
1
1
1
1
1
1
1
1
1
1
1
1
1
1
1
1
1
1
1
1
1
1
1
1
1
1
1
1
1
1
1
1
2.11259
2.802
2.79617
2.78481
2.77584
2.77247
2.77658
2.78788
2.80323
2.81512
2.81845
2.81576
2.81056
2.80466
2.80093
2.80255
2.80762
2.81597
2.82486
2.82921
2.82875
2.82657
2.82414
2.82471
2.82663
2.82948
2.83339
2.83886
2.8462
2.85372
2.85944
2.86299
2.86457
2.86439
2.86308
2.86116
2.85975
2.85971
2.86137
2.86495
2.86959
2.87428
2.87762
2.87937
2.88023
2.8804
2.87995
2.87924
2.87838
2.87886
2.88029
2.88225
2.88662
2.89236
2.89834
2.90349
2.90796
2.91266
2.91844
2.92556
2.93337
2.94083
2.94756
2.9537
2.95933
2.96546
2.97423
2.98858
3.01193
3.04774
3.09874
3.16535
3.24374
3.32506
3.39768
3.45171
3.48387
3.49758
3.50057
1
1
1
1
1
1
1
1
1
1
1
1
1
1
1
1
1
1
1
1
1
1
1
1
1
1
1
1
1
1
1
1
1
1
1
1
1
1
1
1
1
1
1
1
1
1
1
1
1
1
1
1
1
1
1
1
1
1
1
1
1
1
1
1
1
1
1
1
1
1
1
1
1
1
1
1
1
1
1
1
1
1
1
1
1
1
1
1
1
1
1
1
1
1
1
1
1
1
1
1
1
1
1
1
1
1
1
1
1
1
1
1
1
2.07511
2.79999
2.79348
2.78162
2.7724
2.77041
2.77591
2.78837
2.80447
2.81521
2.81707
2.8144
2.8092
2.80368
2.80024
2.80209
2.80705
2.81524
2.82369
2.82746
2.82688
2.82501
2.82376
2.8251
2.82763
2.83037
2.83392
2.83887
2.84573
2.85291
2.85846
2.86201
2.86367
2.86363
2.86245
2.86074
2.85948
2.85948
2.86109
2.86443
2.86874
2.87317
2.8764
2.87819
2.87917
2.87951
2.87921
2.8787
2.87807
2.87891
2.88049
2.88239
2.88663
2.89217
2.89779
2.90258
2.90684
2.91154
2.91749
2.92483
2.93275
2.9402
2.94683
2.95282
2.95826
2.96425
2.97296
2.98731
3.0107
3.04653
3.09757
3.16428
3.2429
3.32451
3.39732
3.45138
3.48345
3.49696
3.4999
1
1
1
1
1
1
1
1
1
1
1
1
1
1
1
1
1
1
1
1
1
1
1
1
1
1
1
1
1
1
1
1
1
1
1
1
1
1
1
1
1
1
1
1
1
1
1
1
1
1
1
1
1
1
1
1
1
1
1
1
1
1
1
1
1
1
1
1
1
1
1
1
1
1
1
1
1
1
1
1
1
1
1
1
1
1
1
1
1
1
1
1
1
1
1
1
1
1
1
1
1
1
1
1
1
1
1
1
1
1
1
1
1
2.03185
2.79706
2.78975
2.77766
2.76933
2.76864
2.77543
2.78893
2.80551
2.81478
2.81561
2.81311
2.80792
2.80269
2.79966
2.80168
2.8065
2.81436
2.82229
2.82548
2.82495
2.82361
2.82374
2.82575
2.82856
2.83115
2.8343
2.83874
2.84511
2.85195
2.85737
2.86095
2.86272
2.86287
2.86186
2.8604
2.85924
2.85922
2.86072
2.86377
2.86771
2.87189
2.87505
2.87691
2.87804
2.87856
2.87846
2.87818
2.87783
2.87902
2.88069
2.88249
2.88658
2.8919
2.89716
2.90158
2.90565
2.91039
2.91651
2.92404
2.93205
2.93948
2.94604
2.95189
2.95714
2.96296
2.97157
2.98585
3.00917
3.04493
3.09592
3.16267
3.24149
3.32343
3.39655
3.45076
3.48282
3.49615
3.49904
1
1
1
1
1
1
1
1
1
1
1
1
1
1
1
1
1
1
1
1
1
1
1
1
1
1
1
1
1
1
1
1
1
1
1
1
1
1
1
1
1
1
1
1
1
1
1
1
1
1
1
1
1
1
1
1
1
1
1
1
1
1
1
1
1
1
1
1
1
1
1
1
1
1
1
1
1
1
1
1
1
1
1
1
1
1
1
1
1
1
1
1
1
1
1
1
1
1
1
1
1
1
1
1
1
1
1
1
1
1
1
1
1
1.98066
2.79259
2.78527
2.77283
2.76621
2.7668
2.77496
2.78943
2.80626
2.81422
2.81417
2.81176
2.80661
2.80147
2.79909
2.80129
2.80602
2.8133
2.82065
2.82337
2.82319
2.82259
2.82409
2.82674
2.82938
2.83173
2.83446
2.83837
2.84427
2.85083
2.85618
2.85982
2.86173
2.86212
2.86136
2.86015
2.85903
2.85893
2.86026
2.86297
2.86653
2.87045
2.87357
2.87554
2.87681
2.87753
2.87766
2.87768
2.87767
2.87919
2.88089
2.88254
2.88645
2.89153
2.89641
2.90049
2.90443
2.90924
2.91552
2.9232
2.93127
2.93868
2.94518
2.95089
2.95597
2.96163
2.9701
2.98425
3.0074
3.04296
3.0938
3.16056
3.23957
3.32187
3.39539
3.44986
3.48198
3.49516
3.49801
1
1
1
1
1
1
1
1
1
1
1
1
1
1
1
1
1
1
1
1
1
1
1
1
1
1
1
1
1
1
1
1
1
1
1
1
1
1
1
1
1
1
1
1
1
1
1
1
1
1
1
1
1
1
1
1
1
1
1
1
1
1
1
1
1
1
1
1
1
1
1
1
1
1
1
1
1
1
1
1
1
1
1
1
1
1
1
1
1
1
1
1
1
1
1
1
1
1
1
1
1
1
1
1
1
1
1
1
1
1
1
1
1
1.92325
2.78607
2.77925
2.76683
2.76261
2.7646
2.77501
2.79
2.80664
2.81365
2.8129
2.81004
2.80501
2.80001
2.79849
2.80094
2.80562
2.81212
2.8188
2.82134
2.82177
2.82214
2.82486
2.82793
2.83004
2.83205
2.83435
2.83771
2.84318
2.84953
2.85489
2.85863
2.86072
2.86139
2.86098
2.86001
2.85885
2.8586
2.85972
2.86203
2.86521
2.86889
2.87199
2.87408
2.8755
2.8764
2.87682
2.87722
2.87763
2.87941
2.8811
2.88255
2.88622
2.89102
2.89553
2.89932
2.90318
2.90811
2.91455
2.92234
2.93041
2.93776
2.9442
2.94981
2.95475
2.96026
2.96859
2.98256
3.00547
3.04074
3.09132
3.15797
3.23716
3.31987
3.39386
3.44868
3.48094
3.49401
3.49686
1
1
1
1
1
1
1
1
1
1
1
1
1
1
1
1
1
1
1
1
1
1
1
1
1
1
1
1
1
1
1
1
1
1
1
1
1
1
1
1
1
1
1
1
1
1
1
1
1
1
1
1
1
1
1
1
1
1
1
1
1
1
1
1
1
1
1
1
1
1
1
1
1
1
1
1
1
1
1
1
1
1
1
1
1
1
1
1
1
1
1
1
1
1
1
1
1
1
1
1
1
1
1
1
1
1
1
1
1
1
1
1
1
1.86515
2.77635
2.77026
2.76066
2.75899
2.7634
2.77607
2.79091
2.80685
2.81285
2.81154
2.80788
2.80297
2.7983
2.79782
2.80054
2.80516
2.81087
2.81682
2.81961
2.82089
2.82232
2.82584
2.82917
2.8305
2.83212
2.83394
2.83673
2.84184
2.84807
2.8535
2.8574
2.85969
2.86068
2.86071
2.85991
2.85869
2.8582
2.85907
2.86096
2.86376
2.86724
2.87032
2.87252
2.87409
2.87518
2.87593
2.8768
2.87769
2.87966
2.8813
2.88251
2.8859
2.89037
2.8945
2.89804
2.90191
2.90702
2.91363
2.92148
2.92948
2.93671
2.9431
2.94862
2.95346
2.95887
2.96707
2.98084
3.00346
3.03837
3.0886
3.15505
3.23433
3.31745
3.39198
3.44723
3.47971
3.49273
3.49561
1
1
1
1
1
1
1
1
1
1
1
1
1
1
1
1
1
1
1
1
1
1
1
1
1
1
1
1
1
1
1
1
1
1
1
1
1
1
1
1
1
1
1
1
1
1
1
1
1
1
1
1
1
1
1
1
1
1
1
1
1
1
1
1
1
1
1
1
1
1
1
1
1
1
1
1
1
1
1
1
1
1
1
1
1
1
1
1
1
1
1
1
1
1
1
1
1
1
1
1
1
1
1
1
1
1
1
1
1
1
1
1
1
1.80377
2.75723
2.76246
2.75526
2.7555
2.76358
2.77835
2.7926
2.80701
2.81165
2.80957
2.80516
2.80058
2.79662
2.79712
2.80018
2.80441
2.80944
2.81496
2.81837
2.82063
2.82297
2.82697
2.83026
2.83081
2.83198
2.83324
2.83547
2.84028
2.84644
2.85203
2.85614
2.8587
2.86001
2.86047
2.85982
2.85854
2.85776
2.8583
2.85978
2.86221
2.86552
2.86861
2.8709
2.87258
2.87387
2.87501
2.87643
2.87784
2.87993
2.88145
2.8824
2.88548
2.88956
2.89328
2.89667
2.90061
2.90597
2.91277
2.92063
2.92848
2.93552
2.94185
2.9473
2.95209
2.95746
2.96556
2.97913
3.00141
3.03592
3.08572
3.15187
3.23117
3.31466
3.38976
3.44552
3.47831
3.49134
3.49429
1
1
1
1
1
1
1
1
1
1
1
1
1
1
1
1
1
1
1
1
1
1
1
1
1
1
1
1
1
1
1
1
1
1
1
1
1
1
1
1
1
1
1
1
1
1
1
1
1
1
1
1
1
1
1
1
1
1
1
1
1
1
1
1
1
1
1
1
1
1
1
1
1
1
1
1
1
1
1
1
1
1
1
1
1
1
1
1
1
1
1
1
1
1
1
1
1
1
1
1
1
1
1
1
1
1
1
1
1
1
1
1
1
1.73163
2.72571
2.75573
2.74965
2.75318
2.76581
2.78153
2.79512
2.80688
2.80973
2.8066
2.80189
2.79798
2.79532
2.79658
2.79983
2.80322
2.80793
2.81346
2.81764
2.82077
2.82396
2.82811
2.83093
2.83105
2.8316
2.8323
2.83397
2.83854
2.8447
2.85049
2.85487
2.85775
2.85937
2.8602
2.85971
2.85836
2.85728
2.85739
2.85851
2.86057
2.86373
2.86684
2.86922
2.87101
2.87252
2.87411
2.87613
2.87807
2.8802
2.88153
2.88224
2.88497
2.88855
2.89187
2.89518
2.89931
2.90498
2.91197
2.91979
2.92741
2.9342
2.94044
2.94584
2.95063
2.95601
2.96405
2.97743
2.99938
3.03343
3.08273
3.14849
3.2277
3.31153
3.38723
3.44357
3.47675
3.48987
3.49294
1
1
1
1
1
1
1
1
1
1
1
1
1
1
1
1
1
1
1
1
1
1
1
1
1
1
1
1
1
1
1
1
1
1
1
1
1
1
1
1
1
1
1
1
1
1
1
1
1
1
1
1
1
1
1
1
1
1
1
1
1
1
1
1
1
1
1
1
1
1
1
1
1
1
1
1
1
1
1
1
1
1
1
1
1
1
1
1
1
1
1
1
1
1
1
1
1
1
1
1
1
1
1
1
1
1
1
1
1
1
1
1
1
1.63778
2.67956
2.74908
2.74543
2.75415
2.77067
2.78539
2.79696
2.80575
2.80677
2.80267
2.79813
2.79545
2.79435
2.7964
2.79947
2.80177
2.80663
2.81244
2.81727
2.82116
2.82498
2.8291
2.83134
2.83108
2.83094
2.83111
2.83234
2.83672
2.84291
2.84895
2.85363
2.85681
2.85874
2.85986
2.8595
2.8581
2.85672
2.85637
2.85715
2.85885
2.86189
2.86504
2.86748
2.8694
2.87117
2.87327
2.8759
2.87837
2.88048
2.88151
2.88203
2.88433
2.88734
2.89025
2.89358
2.89799
2.90403
2.91122
2.91894
2.92626
2.93275
2.93888
2.94424
2.94907
2.95453
2.96256
2.97577
2.99737
3.03093
3.07968
3.14497
3.22401
3.30809
3.38439
3.44138
3.47504
3.48833
3.49158
1
1
1
1
1
1
1
1
1
1
1
1
1
1
1
1
1
1
1
1
1
1
1
1
1
1
1
1
1
1
1
1
1
1
1
1
1
1
1
1
1
1
1
1
1
1
1
1
1
1
1
1
1
1
1
1
1
1
1
1
1
1
1
1
1
1
1
1
1
1
1
1
1
1
1
1
1
1
1
1
1
1
1
1
1
1
1
1
1
1
1
1
1
1
1
1
1
1
1
1
1
1
1
1
1
1
1
1
1
1
1
1
1
1.51464
2.61334
2.74305
2.74565
2.7608
2.77731
2.78853
2.79736
2.80342
2.80291
2.7983
2.79441
2.79313
2.79347
2.79649
2.79913
2.80066
2.8058
2.81177
2.81707
2.82153
2.8258
2.82981
2.83149
2.83086
2.83001
2.82968
2.83067
2.83487
2.84115
2.84745
2.85243
2.8559
2.85808
2.8594
2.85914
2.8577
2.85608
2.85526
2.85568
2.85706
2.86
2.8632
2.86571
2.86778
2.86989
2.87256
2.87578
2.87869
2.88072
2.8814
2.88172
2.88354
2.88594
2.88843
2.89187
2.89667
2.90312
2.9105
2.91805
2.925
2.93118
2.93716
2.94249
2.94743
2.95301
2.96108
2.97413
2.99539
3.02845
3.07661
3.14135
3.22012
3.30439
3.38126
3.43896
3.47319
3.48671
3.49019
1
1
1
1
1
1
1
1
1
1
1
1
1
1
1
1
1
1
1
1
1
1
1
1
1
1
1
1
1
1
1
1
1
1
1
1
1
1
1
1
1
1
1
1
1
1
1
1
1
1
1
1
1
1
1
1
1
1
1
1
1
1
1
1
1
1
1
1
1
1
1
1
1
1
1
1
1
1
1
1
1
1
1
1
1
1
1
1
1
1
1
1
1
1
1
1
1
1
1
1
1
1
1
1
1
1
1
1
1
1
1
1
1
1.36314
2.52536
2.73814
2.75245
2.77112
2.78374
2.7904
2.79636
2.79985
2.79833
2.79397
2.79107
2.79118
2.79284
2.79663
2.79901
2.80036
2.80532
2.81126
2.81687
2.82175
2.82624
2.83016
2.83137
2.83034
2.82886
2.82813
2.82898
2.83307
2.83947
2.84601
2.85127
2.85498
2.85739
2.85884
2.85863
2.85713
2.85533
2.85407
2.8541
2.85523
2.85804
2.8613
2.86387
2.86616
2.86872
2.87204
2.87576
2.879
2.8809
2.8812
2.8813
2.88259
2.88437
2.88646
2.8901
2.89536
2.90222
2.90978
2.9171
2.92361
2.92949
2.9353
2.94062
2.94569
2.95145
2.95957
2.97251
2.99345
3.026
3.07353
3.13768
3.21609
3.30047
3.37789
3.43632
3.47117
3.48501
3.48878
1
1
1
1
1
1
1
1
1
1
1
1
1
1
1
1
1
1
1
1
1
1
1
1
1
1
1
1
1
1
1
1
1
1
1
1
1
1
1
1
1
1
1
1
1
1
1
1
1
1
1
1
1
1
1
1
1
1
1
1
1
1
1
1
1
1
1
1
1
1
1
1
1
1
1
1
1
1
1
1
1
1
1
1
1
1
1
1
1
1
1
1
1
1
1
1
1
1
1
1
1
1
1
1
1
1
1
1
1
1
1
1
1
1.19132
2.42567
2.7355
2.76475
2.78073
2.78909
2.79137
2.7939
2.79495
2.79292
2.78957
2.78803
2.78985
2.79286
2.79714
2.79944
2.80083
2.80492
2.81063
2.81645
2.82163
2.8263
2.83015
2.83094
2.82957
2.82758
2.82657
2.82736
2.83138
2.83789
2.84464
2.8501
2.85401
2.85664
2.85818
2.85796
2.8564
2.85444
2.85279
2.85245
2.85337
2.85598
2.8593
2.86197
2.86459
2.86775
2.87171
2.87579
2.87922
2.881
2.88094
2.88074
2.88149
2.88263
2.88439
2.88829
2.89406
2.9013
2.909
2.91607
2.92208
2.92768
2.9333
2.93864
2.94388
2.94983
2.95804
2.97089
2.99153
3.02358
3.07047
3.13396
3.21196
3.29636
3.37429
3.43347
3.469
3.48323
3.48731
1
1
1
1
1
1
1
1
1
1
1
1
1
1
1
1
1
1
1
1
1
1
1
1
1
1
1
1
1
1
1
1
1
1
1
1
1
1
1
1
1
1
1
1
1
1
1
1
1
1
1
1
1
1
1
1
1
1
1
1
1
1
1
1
1
1
1
1
1
1
1
1
1
1
1
1
1
1
1
1
1
1
1
1
1
1
1
1
1
1
1
1
1
1
1
1
1
1
1
1
1
1
1
1
1
1
1
1
1
1
1
1
1
1.02267
2.32726
2.7404
2.77711
2.7879
2.7908
2.79001
2.79021
2.78888
2.78695
2.78484
2.78542
2.7896
2.79395
2.79883
2.80055
2.80147
2.80436
2.80951
2.81546
2.82103
2.826
2.8298
2.83026
2.82858
2.82623
2.82508
2.82588
2.82984
2.83642
2.8433
2.8489
2.85296
2.85578
2.85741
2.85716
2.85552
2.85339
2.85145
2.85082
2.85149
2.85378
2.85716
2.86001
2.86312
2.867
2.87153
2.87583
2.87933
2.88098
2.88062
2.88005
2.88022
2.88075
2.88225
2.88651
2.89279
2.90035
2.90814
2.91493
2.92041
2.92571
2.93117
2.93655
2.94199
2.94814
2.95646
2.96925
2.98962
3.02118
3.06742
3.13023
3.20774
3.2921
3.37049
3.43042
3.46668
3.48137
3.48578
1
1
1
1
1
1
1
1
1
1
1
1
1
1
1
1
1
1
1
1
1
1
1
1
1
1
1
1
1
1
1
1
1
1
1
1
1
1
1
1
1
1
1
1
1
1
1
1
1
1
1
1
1
1
1
1
1
1
1
1
1
1
1
1
1
1
1
1
1
1
1
1
1
1
1
1
1
1
1
1
1
1
1
1
1
1
1
1
1
1
1
1
1
1
1
1
1
1
1
1
1
1
1
1
1
1
1
1
1
1
1
1
1
1.00009
2.24011
2.74565
2.78526
2.78934
2.78919
2.78672
2.7846
2.78192
2.78095
2.78088
2.78432
2.79075
2.79697
2.80134
2.8018
2.80183
2.80333
2.80755
2.81373
2.81999
2.82542
2.82918
2.82938
2.82743
2.82484
2.82366
2.82453
2.82842
2.83502
2.84195
2.84765
2.85179
2.85478
2.8565
2.85623
2.85451
2.85219
2.85004
2.84923
2.8496
2.85145
2.85489
2.85805
2.86182
2.86646
2.87143
2.87584
2.87933
2.88083
2.88015
2.8792
2.87877
2.87877
2.88011
2.88477
2.89154
2.89937
2.90718
2.91366
2.9186
2.9236
2.92892
2.93437
2.94002
2.94638
2.95482
2.96758
2.98771
3.0188
3.06438
3.12648
3.20345
3.28769
3.3665
3.4272
3.46423
3.47944
3.48419
1
1
1
1
1
1
1
1
1
1
1
1
1
1
1
1
1
1
1
1
1
1
1
1
1
1
1
1
1
1
1
1
1
1
1
1
1
1
1
1
1
1
1
1
1
1
1
1
1
1
1
1
1
1
1
1
1
1
1
1
1
1
1
1
1
1
1
1
1
1
1
1
1
1
1
1
1
1
1
1
1
1
1
1
1
1
1
1
1
1
1
1
1
1
1
1
1
1
1
1
1
1
1
1
1
1
1
1
1
1
1
1
1
1
2.15952
2.7502
2.78802
2.78724
2.78563
2.78174
2.77712
2.77486
2.77553
2.77869
2.78595
2.7939
2.8012
2.80362
2.80283
2.80117
2.8013
2.8048
2.81152
2.81876
2.82479
2.82845
2.82835
2.82615
2.82343
2.82233
2.82328
2.82709
2.83364
2.84057
2.84631
2.85051
2.8536
2.8554
2.85512
2.85338
2.85087
2.84857
2.8476
2.84769
2.8491
2.85254
2.85615
2.86071
2.86606
2.87134
2.87575
2.87916
2.88052
2.87952
2.87818
2.87719
2.87671
2.87801
2.88311
2.89032
2.89834
2.90611
2.91225
2.91665
2.92135
2.92655
2.93207
2.93795
2.94454
2.95312
2.96589
2.98582
3.01644
3.06135
3.12271
3.19907
3.28313
3.36232
3.42381
3.46166
3.47747
3.48256
1
1
1
1
1
1
1
1
1
1
1
1
1
1
1
1
1
1
1
1
1
1
1
1
1
1
1
1
1
1
1
1
1
1
1
1
1
1
1
1
1
1
1
1
1
1
1
1
1
1
1
1
1
1
1
1
1
1
1
1
1
1
1
1
1
1
1
1
1
1
1
1
1
1
1
1
1
1
1
1
1
1
1
1
1
1
1
1
1
1
1
1
1
1
1
1
1
1
1
1
1
1
1
1
1
1
1
1
1
1
1
1
1
1
2.0776
2.75157
2.78619
2.78389
2.78086
2.77488
2.7688
2.76867
2.77209
2.77941
2.78983
2.79904
2.80471
2.80494
2.80276
2.79877
2.79805
2.80185
2.80931
2.81763
2.8242
2.82764
2.82726
2.82477
2.822
2.82104
2.82213
2.82581
2.83224
2.83912
2.84487
2.84909
2.85222
2.85408
2.85382
2.85212
2.84951
2.84707
2.84588
2.84569
2.84675
2.8502
2.85442
2.8598
2.8657
2.87117
2.87552
2.87881
2.88002
2.87871
2.87701
2.87549
2.87463
2.87596
2.88152
2.8891
2.89722
2.9049
2.9107
2.91458
2.91899
2.92406
2.92966
2.93577
2.9426
2.95137
2.9642
2.98395
3.0141
3.05831
3.11888
3.19457
3.27838
3.35793
3.42024
3.45897
3.47547
3.48092
1
1
1
1
1
1
1
1
1
1
1
1
1
1
1
1
1
1
1
1
1
1
1
1
1
1
1
1
1
1
1
1
1
1
1
1
1
1
1
1
1
1
1
1
1
1
1
1
1
1
1
1
1
1
1
1
1
1
1
1
1
1
1
1
1
1
1
1
1
1
1
1
1
1
1
1
1
1
1
1
1
1
1
1
1
1
1
1
1
1
1
1
1
1
1
1
1
1
1
1
1
1
1
1
1
1
1
1
1
1
1
1
1
1
1.98781
2.74769
2.7831
2.77974
2.77437
2.76591
2.76117
2.76381
2.77167
2.78281
2.79504
2.80413
2.80652
2.80509
2.80068
2.79502
2.79437
2.79916
2.8076
2.81693
2.82373
2.82668
2.826
2.82333
2.82059
2.81981
2.82103
2.82455
2.8308
2.83756
2.84329
2.84752
2.85064
2.85254
2.85235
2.85074
2.84812
2.84557
2.84405
2.84352
2.84439
2.84801
2.85299
2.85907
2.86528
2.87083
2.87517
2.87826
2.87921
2.87777
2.87566
2.87368
2.87255
2.87403
2.87996
2.88784
2.89603
2.90353
2.90898
2.91244
2.91655
2.92146
2.92713
2.93345
2.94055
2.94956
2.96251
2.98212
3.01179
3.05525
3.11497
3.18993
3.27343
3.35331
3.41648
3.45617
3.47346
3.47929
1
1
1
1
1
1
1
1
1
1
1
1
1
1
1
1
1
1
1
1
1
1
1
1
1
1
1
1
1
1
1
1
1
1
1
1
1
1
1
1
1
1
1
1
1
1
1
1
1
1
1
1
1
1
1
1
1
1
1
1
1
1
1
1
1
1
1
1
1
1
1
1
1
1
1
1
1
1
1
1
1
1
1
1
1
1
1
1
1
1
1
1
1
1
1
1
1
1
1
1
1
1
1
1
1
1
1
1
1
1
1
1
1
1
1.88744
2.7356
2.7776
2.77258
2.76428
2.75658
2.75632
2.76214
2.77366
2.78757
2.80022
2.80695
2.80645
2.80305
2.79647
2.79086
2.7913
2.79697
2.80669
2.81674
2.8233
2.82549
2.82452
2.82182
2.8192
2.81863
2.82
2.82333
2.82931
2.83587
2.84153
2.84577
2.84886
2.85082
2.85077
2.84923
2.84666
2.84405
2.84214
2.84114
2.84206
2.84611
2.85191
2.85849
2.86478
2.87028
2.87464
2.87751
2.87816
2.87664
2.87416
2.87177
2.87056
2.87226
2.8784
2.88649
2.89471
2.90197
2.90704
2.91022
2.91402
2.91877
2.92446
2.93099
2.93838
2.9477
2.96084
2.98035
3.00952
3.05216
3.11093
3.1851
3.26824
3.34844
3.41254
3.45327
3.47143
3.47769
1
1
1
1
1
1
1
1
1
1
1
1
1
1
1
1
1
1
1
1
1
1
1
1
1
1
1
1
1
1
1
1
1
1
1
1
1
1
1
1
1
1
1
1
1
1
1
1
1
1
1
1
1
1
1
1
1
1
1
1
1
1
1
1
1
1
1
1
1
1
1
1
1
1
1
1
1
1
1
1
1
1
1
1
1
1
1
1
1
1
1
1
1
1
1
1
1
1
1
1
1
1
1
1
1
1
1
1
1
1
1
1
1
1
1.77325
2.71035
2.76799
2.76206
2.75408
2.75103
2.75424
2.76365
2.77778
2.79289
2.80324
2.80657
2.80448
2.79873
2.79166
2.7873
2.78902
2.79563
2.8065
2.81683
2.82277
2.82396
2.82277
2.82018
2.81778
2.81749
2.81898
2.82211
2.82772
2.83401
2.83957
2.84384
2.84691
2.84897
2.84916
2.84761
2.84511
2.84244
2.84008
2.83863
2.83988
2.8446
2.85113
2.85798
2.86418
2.86953
2.87388
2.87656
2.87691
2.8753
2.87253
2.86986
2.86871
2.87061
2.87682
2.885
2.8932
2.90021
2.90494
2.9079
2.91143
2.916
2.92169
2.92838
2.9361
2.94581
2.9592
2.97862
3.00727
3.04903
3.10677
3.18007
3.26281
3.34333
3.40839
3.45024
3.46939
3.47609
1
1
1
1
1
1
1
1
1
1
1
1
1
1
1
1
1
1
1
1
1
1
1
1
1
1
1
1
1
1
1
1
1
1
1
1
1
1
1
1
1
1
1
1
1
1
1
1
1
1
1
1
1
1
1
1
1
1
1
1
1
1
1
1
1
1
1
1
1
1
1
1
1
1
1
1
1
1
1
1
1
1
1
1
1
1
1
1
1
1
1
1
1
1
1
1
1
1
1
1
1
1
1
1
1
1
1
1
1
1
1
1
1
1
1.64109
2.66796
2.75779
2.75151
2.74828
2.74974
2.75597
2.76707
2.78288
2.79643
2.80344
2.80342
2.79986
2.79327
2.78736
2.78531
2.78785
2.79524
2.8067
2.81691
2.82197
2.82199
2.82078
2.81845
2.81635
2.81643
2.81797
2.82084
2.82599
2.83199
2.83744
2.84173
2.84482
2.84705
2.84752
2.84595
2.84344
2.84064
2.83784
2.83616
2.83802
2.84344
2.85052
2.85747
2.86348
2.86858
2.87284
2.87535
2.87543
2.87375
2.8708
2.86804
2.86706
2.86907
2.87521
2.88333
2.89144
2.89823
2.90267
2.90546
2.90876
2.91318
2.91883
2.92564
2.93372
2.94388
2.95759
2.97694
3.00504
3.04584
3.10248
3.17483
3.25715
3.33798
3.40405
3.44708
3.46729
3.47447
1
1
1
1
1
1
1
1
1
1
1
1
1
1
1
1
1
1
1
1
1
1
1
1
1
1
1
1
1
1
1
1
1
1
1
1
1
1
1
1
1
1
1
1
1
1
1
1
1
1
1
1
1
1
1
1
1
1
1
1
1
1
1
1
1
1
1
1
1
1
1
1
1
1
1
1
1
1
1
1
1
1
1
1
1
1
1
1
1
1
1
1
1
1
1
1
1
1
1
1
1
1
1
1
1
1
1
1
1
1
1
1
1
1
1.49969
2.61123
2.74415
2.74332
2.74692
2.75233
2.76095
2.77146
2.78595
2.7964
2.80058
2.79868
2.79378
2.78815
2.78395
2.78459
2.78785
2.79578
2.80709
2.81653
2.8206
2.81985
2.81859
2.81676
2.81493
2.81536
2.81695
2.81946
2.82403
2.82973
2.83511
2.83947
2.84264
2.84508
2.84585
2.84425
2.84167
2.83863
2.83547
2.83398
2.83654
2.84251
2.84991
2.85688
2.86266
2.86744
2.87148
2.87382
2.87371
2.872
2.86904
2.86638
2.86562
2.86764
2.87355
2.88147
2.88941
2.89599
2.90021
2.90288
2.90602
2.9103
2.91588
2.92278
2.93125
2.94193
2.95598
2.97526
3.00279
3.04257
3.09801
3.16938
3.25126
3.33242
3.39953
3.44379
3.4651
3.47276
1
1
1
1
1
1
1
1
1
1
1
1
1
1
1
1
1
1
1
1
1
1
1
1
1
1
1
1
1
1
1
1
1
1
1
1
1
1
1
1
1
1
1
1
1
1
1
1
1
1
1
1
1
1
1
1
1
1
1
1
1
1
1
1
1
1
1
1
1
1
1
1
1
1
1
1
1
1
1
1
1
1
1
1
1
1
1
1
1
1
1
1
1
1
1
1
1
1
1
1
1
1
1
1
1
1
1
1
1
1
1
1
1
1
1.35979
2.53866
2.73134
2.74318
2.75095
2.75871
2.76589
2.77401
2.78499
2.79288
2.79508
2.79259
2.78816
2.78447
2.78246
2.78443
2.78875
2.79661
2.80712
2.81537
2.8185
2.81747
2.8164
2.81525
2.81368
2.81434
2.81587
2.81795
2.82185
2.82724
2.83261
2.83712
2.84045
2.84309
2.8441
2.84246
2.83976
2.83645
2.83314
2.8323
2.83543
2.84168
2.84922
2.85613
2.86168
2.86611
2.86981
2.87192
2.87172
2.87009
2.86733
2.86495
2.86439
2.86632
2.87185
2.87943
2.88713
2.89348
2.89754
2.90014
2.9032
2.90736
2.91287
2.91984
2.92873
2.93998
2.95437
2.97355
3.00047
3.03919
3.09337
3.16371
3.24517
3.3267
3.39487
3.44035
3.46275
3.47087
1
1
1
1
1
1
1
1
1
1
1
1
1
1
1
1
1
1
1
1
1
1
1
1
1
1
1
1
1
1
1
1
1
1
1
1
1
1
1
1
1
1
1
1
1
1
1
1
1
1
1
1
1
1
1
1
1
1
1
1
1
1
1
1
1
1
1
1
1
1
1
1
1
1
1
1
1
1
1
1
1
1
1
1
1
1
1
1
1
1
1
1
1
1
1
1
1
1
1
1
1
1
1
1
1
1
1
1
1
1
1
1
1
1
1.20388
2.44932
2.72915
2.75023
2.75841
2.76441
2.76733
2.7731
2.78066
2.78632
2.78825
2.78626
2.78401
2.78257
2.78274
2.78514
2.79006
2.79699
2.8063
2.81326
2.81568
2.81489
2.8143
2.81393
2.81274
2.81338
2.81471
2.81631
2.81943
2.82447
2.82991