/*--------------------------------*- C++ -*----------------------------------*\
  =========                 |
  \\      /  F ield         | OpenFOAM: The Open Source CFD Toolbox
   \\    /   O peration     | Website:  https://openfoam.org
    \\  /    A nd           | Version:  7
     \\/     M anipulation  |
\*---------------------------------------------------------------------------*/
FoamFile
{
    version     2.0;
    format      ascii;
    class       volScalarField;
    location    "2.1";
    object      p;
}
// * * * * * * * * * * * * * * * * * * * * * * * * * * * * * * * * * * * * * //

dimensions      [1 -1 -2 0 0 0 0];

internalField   nonuniform List<scalar> 
258048
(
1
1
1
1
1
1
1
1
1
1
1
1
1
1
1
1
1
1
1
1
1
1
1
1
1
1
1
1
1
1
1
1
1
1
1
1
1
1
1
1
1
1
1
1
1
1
1
1
1
1
1
1
1
1
1
1
1
1
1
1
1
1
1
1
1
1
1
1
1
1
1
1
1
1
1
1
1
1
1
1
1
1
1
1
1
1
1
1
1
1
1
1
1
1
1
1
1
1
1
1
5.10547
10.2602
10.4738
10.4813
10.507
10.5221
10.547
10.5837
10.6283
10.6733
10.7105
10.742
10.7725
10.8037
10.8355
10.8618
10.881
10.9
10.9367
10.9756
11.0123
11.0466
11.0695
11.0767
11.076
11.0811
11.1031
11.1382
11.1795
11.2213
11.2559
11.2792
11.2934
11.3055
11.325
11.3548
11.3879
11.4161
11.4347
11.4444
11.4515
11.464
11.4888
11.5242
11.5606
11.5883
11.6009
11.6022
11.6037
11.6162
11.6442
11.6799
11.7086
11.722
11.7258
11.7298
11.7383
11.7588
11.7922
11.8248
11.8444
11.8492
11.8482
11.8509
11.8628
11.8846
11.9139
11.9367
11.9429
11.9398
11.9339
11.9366
11.9544
11.9807
12.0081
12.0287
12.0386
12.039
12.033
12.0255
12.0206
12.0196
12.0214
12.0295
12.0453
12.0668
12.0883
12.1015
12.1024
12.0873
12.0612
12.0326
1
1
1
1
1
1
1
1
1
1
1
1
1
1
1
1
1
1
1
1
1
1
1
1
1
1
1
1
1
1
1
1
1
1
1
1
1
1
1
1
1
1
1
1
1
1
1
1
1
1
1
1
1
1
1
1
1
1
1
1
1
1
1
1
1
1
1
1
1
1
1
1
1
1
1
1
1
1
1
1
1
1
1
1
1
1
1
1
1
1
1
1
1
1
1
1
1
1
1
1
5.07854
10.2404
10.4713
10.4865
10.5156
10.5305
10.5519
10.5836
10.6235
10.6671
10.7067
10.7409
10.7739
10.8077
10.8403
10.8653
10.8803
10.8959
10.9317
10.9718
11.0108
11.0461
11.0698
11.0776
11.0774
11.0829
11.1045
11.1393
11.1803
11.2218
11.2562
11.2796
11.2936
11.3051
11.3229
11.351
11.3837
11.4132
11.434
11.4458
11.4536
11.465
11.487
11.5202
11.5565
11.5866
11.6039
11.6093
11.6119
11.6208
11.6412
11.6705
11.6985
11.7168
11.7272
11.7365
11.7469
11.7644
11.7903
11.8167
11.835
11.844
11.849
11.8564
11.8704
11.89
11.9136
11.9312
11.9364
11.9357
11.9335
11.9395
11.9583
11.983
12.0075
12.0258
12.0353
12.037
12.0323
12.0251
12.0201
12.0187
12.0208
12.0298
12.0463
12.0675
12.0874
12.0992
12.099
12.0845
12.061
12.0355
1
1
1
1
1
1
1
1
1
1
1
1
1
1
1
1
1
1
1
1
1
1
1
1
1
1
1
1
1
1
1
1
1
1
1
1
1
1
1
1
1
1
1
1
1
1
1
1
1
1
1
1
1
1
1
1
1
1
1
1
1
1
1
1
1
1
1
1
1
1
1
1
1
1
1
1
1
1
1
1
1
1
1
1
1
1
1
1
1
1
1
1
1
1
1
1
1
1
1
1
5.03015
10.2302
10.4635
10.4919
10.5244
10.5412
10.5604
10.5863
10.6201
10.6595
10.6997
10.7371
10.774
10.8111
10.845
10.8691
10.8813
10.892
10.9229
10.9631
11.004
11.0411
11.0669
11.0769
11.0781
11.0845
11.1059
11.1406
11.1812
11.2221
11.2562
11.2795
11.2938
11.305
11.3213
11.3471
11.3786
11.4087
11.4319
11.4464
11.4558
11.4666
11.4855
11.5151
11.5501
11.5824
11.6049
11.6166
11.6226
11.6297
11.6423
11.6615
11.6842
11.7053
11.7232
11.7403
11.7568
11.7741
11.7925
11.8089
11.8215
11.8321
11.8436
11.8588
11.8786
11.8987
11.9158
11.9253
11.9268
11.9268
11.9289
11.9404
11.9623
11.9869
12.008
12.0224
12.03
12.0329
12.0306
12.0248
12.0201
12.018
12.02
12.0294
12.0463
12.0673
12.086
12.0962
12.0947
12.0808
12.0605
12.0395
1
1
1
1
1
1
1
1
1
1
1
1
1
1
1
1
1
1
1
1
1
1
1
1
1
1
1
1
1
1
1
1
1
1
1
1
1
1
1
1
1
1
1
1
1
1
1
1
1
1
1
1
1
1
1
1
1
1
1
1
1
1
1
1
1
1
1
1
1
1
1
1
1
1
1
1
1
1
1
1
1
1
1
1
1
1
1
1
1
1
1
1
1
1
1
1
1
1
1
1
4.95141
10.2287
10.4525
10.4913
10.5284
10.5493
10.5696
10.5908
10.6194
10.6532
10.6921
10.7318
10.7723
10.812
10.847
10.8709
10.8815
10.889
10.9159
10.9551
10.9964
11.0347
11.063
11.0763
11.0798
11.0871
11.1079
11.1417
11.1816
11.2218
11.2555
11.2787
11.2929
11.304
11.3191
11.343
11.3732
11.4037
11.4289
11.4464
11.4578
11.4681
11.4839
11.5093
11.5426
11.5775
11.6062
11.6243
11.6331
11.6374
11.6427
11.6531
11.6706
11.6941
11.7201
11.7453
11.7662
11.7812
11.7918
11.7996
11.8084
11.8213
11.84
11.8636
11.8877
11.9064
11.9172
11.919
11.9166
11.9175
11.9243
11.9414
11.9659
11.9898
12.0077
12.0186
12.0245
12.028
12.0277
12.0236
12.0195
12.0168
12.0189
12.0293
12.0467
12.067
12.0833
12.0915
12.0888
12.0761
12.0598
12.0442
1
1
1
1
1
1
1
1
1
1
1
1
1
1
1
1
1
1
1
1
1
1
1
1
1
1
1
1
1
1
1
1
1
1
1
1
1
1
1
1
1
1
1
1
1
1
1
1
1
1
1
1
1
1
1
1
1
1
1
1
1
1
1
1
1
1
1
1
1
1
1
1
1
1
1
1
1
1
1
1
1
1
1
1
1
1
1
1
1
1
1
1
1
1
1
1
1
1
1
1
4.85737
10.2205
10.4548
10.4869
10.5227
10.5503
10.5772
10.5991
10.6231
10.6501
10.6844
10.7243
10.766
10.8074
10.8446
10.8711
10.8846
10.8916
10.9128
10.9477
10.9873
11.0259
11.0572
11.0751
11.0826
11.091
11.1102
11.1421
11.1809
11.2204
11.2538
11.277
11.2915
11.3029
11.3178
11.3404
11.3692
11.399
11.425
11.4446
11.4582
11.4692
11.4829
11.5052
11.5361
11.5719
11.6054
11.6288
11.6401
11.6426
11.6426
11.6472
11.661
11.6852
11.717
11.748
11.7711
11.7839
11.7889
11.7911
11.7975
11.8132
11.838
11.8682
11.8943
11.9106
11.9167
11.9136
11.9085
11.9095
11.9193
11.94
11.9666
11.9904
12.0064
12.015
12.0195
12.0231
12.024
12.0213
12.018
12.0153
12.0182
12.0294
12.047
12.0662
12.0795
12.0854
12.082
12.0711
12.059
12.0485
1
1
1
1
1
1
1
1
1
1
1
1
1
1
1
1
1
1
1
1
1
1
1
1
1
1
1
1
1
1
1
1
1
1
1
1
1
1
1
1
1
1
1
1
1
1
1
1
1
1
1
1
1
1
1
1
1
1
1
1
1
1
1
1
1
1
1
1
1
1
1
1
1
1
1
1
1
1
1
1
1
1
1
1
1
1
1
1
1
1
1
1
1
1
1
1
1
1
1
1
4.75117
10.1992
10.4603
10.4796
10.5137
10.547
10.5803
10.6078
10.6311
10.6518
10.6794
10.7165
10.7567
10.7982
10.8382
10.8699
10.8895
10.8987
10.9135
10.9417
10.9769
11.0149
11.0497
11.0739
11.087
11.0968
11.1135
11.1417
11.1781
11.2165
11.2498
11.2738
11.2896
11.3026
11.318
11.3393
11.3657
11.3937
11.4195
11.4402
11.456
11.4691
11.4831
11.5039
11.5331
11.5675
11.6017
11.6277
11.6412
11.6441
11.6429
11.6455
11.658
11.682
11.7146
11.7461
11.7686
11.7799
11.7824
11.7833
11.7913
11.8107
11.8393
11.8709
11.8959
11.9097
11.9136
11.9091
11.9038
11.9048
11.9145
11.9353
11.9628
11.9876
12.0037
12.0121
12.0163
12.0192
12.0197
12.0175
12.015
12.0137
12.0182
12.0301
12.0474
12.0641
12.0743
12.0783
12.0747
12.066
12.0576
12.0512
1
1
1
1
1
1
1
1
1
1
1
1
1
1
1
1
1
1
1
1
1
1
1
1
1
1
1
1
1
1
1
1
1
1
1
1
1
1
1
1
1
1
1
1
1
1
1
1
1
1
1
1
1
1
1
1
1
1
1
1
1
1
1
1
1
1
1
1
1
1
1
1
1
1
1
1
1
1
1
1
1
1
1
1
1
1
1
1
1
1
1
1
1
1
1
1
1
1
1
1
4.63063
10.1719
10.461
10.4725
10.5035
10.5424
10.5826
10.6165
10.6416
10.6582
10.6775
10.7085
10.7453
10.7862
10.8291
10.8675
10.8939
10.9069
10.9164
10.9358
10.965
11.0015
11.0403
11.0722
11.0921
11.1043
11.1181
11.1411
11.1731
11.2093
11.2429
11.2692
11.2882
11.3038
11.32
11.3395
11.3624
11.3873
11.4116
11.433
11.4512
11.4675
11.4841
11.5058
11.5339
11.5657
11.5966
11.6213
11.6358
11.6417
11.6435
11.6478
11.6606
11.6833
11.7125
11.7404
11.7603
11.7702
11.7731
11.7774
11.7905
11.8135
11.8427
11.8712
11.8928
11.9042
11.9078
11.9049
11.9014
11.9029
11.9109
11.9291
11.9552
11.981
11.9993
12.0096
12.0148
12.0164
12.0148
12.0123
12.0106
12.0116
12.0186
12.0313
12.0471
12.0607
12.0681
12.0705
12.0673
12.0609
12.0556
12.0517
1
1
1
1
1
1
1
1
1
1
1
1
1
1
1
1
1
1
1
1
1
1
1
1
1
1
1
1
1
1
1
1
1
1
1
1
1
1
1
1
1
1
1
1
1
1
1
1
1
1
1
1
1
1
1
1
1
1
1
1
1
1
1
1
1
1
1
1
1
1
1
1
1
1
1
1
1
1
1
1
1
1
1
1
1
1
1
1
1
1
1
1
1
1
1
1
1
1
1
1
4.49041
10.1423
10.4582
10.4599
10.4905
10.5357
10.5841
10.6243
10.6523
10.667
10.6788
10.7013
10.7332
10.773
10.8196
10.8651
10.8983
10.9144
10.9198
10.9297
10.9517
10.9863
11.0296
11.0697
11.0973
11.1126
11.1237
11.1404
11.1661
11.1989
11.2332
11.2632
11.2871
11.3065
11.3234
11.3403
11.3587
11.3794
11.4015
11.4233
11.4441
11.4642
11.4844
11.5085
11.5362
11.5651
11.5917
11.6131
11.6272
11.6358
11.6425
11.6512
11.6655
11.6857
11.7099
11.7325
11.7487
11.7577
11.7634
11.7738
11.7925
11.8184
11.8463
11.8708
11.8878
11.8962
11.9
11.9003
11.8996
11.902
11.9083
11.9225
11.946
11.972
11.9932
12.0068
12.0138
12.0143
12.01
12.0063
12.0055
12.0093
12.0189
12.0321
12.046
12.0565
12.0615
12.0624
12.06
12.0559
12.0531
12.0504
1
1
1
1
1
1
1
1
1
1
1
1
1
1
1
1
1
1
1
1
1
1
1
1
1
1
1
1
1
1
1
1
1
1
1
1
1
1
1
1
1
1
1
1
1
1
1
1
1
1
1
1
1
1
1
1
1
1
1
1
1
1
1
1
1
1
1
1
1
1
1
1
1
1
1
1
1
1
1
1
1
1
1
1
1
1
1
1
1
1
1
1
1
1
1
1
1
1
1
1
4.33176
10.0998
10.4567
10.4499
10.4792
10.5283
10.5831
10.6288
10.6603
10.6751
10.6819
10.6962
10.7221
10.7608
10.811
10.8626
10.901
10.9192
10.9217
10.9233
10.938
10.9706
11.0184
11.0663
11.1013
11.1201
11.1293
11.1397
11.1583
11.1869
11.2217
11.2561
11.2858
11.3092
11.3267
11.3408
11.3543
11.3709
11.3909
11.413
11.4364
11.4603
11.4842
11.5105
11.5381
11.5646
11.5871
11.6047
11.6179
11.6293
11.6414
11.6549
11.6692
11.6858
11.7046
11.7223
11.736
11.7459
11.7555
11.7715
11.7948
11.8222
11.8488
11.87
11.8829
11.8885
11.8918
11.8943
11.8962
11.9002
11.9054
11.9163
11.9372
11.9624
11.9859
12.0031
12.0122
12.0119
12.0056
12.0005
12.0002
12.0065
12.0185
12.032
12.0441
12.0516
12.0543
12.0543
12.0527
12.0504
12.0493
12.047
1
1
1
1
1
1
1
1
1
1
1
1
1
1
1
1
1
1
1
1
1
1
1
1
1
1
1
1
1
1
1
1
1
1
1
1
1
1
1
1
1
1
1
1
1
1
1
1
1
1
1
1
1
1
1
1
1
1
1
1
1
1
1
1
1
1
1
1
1
1
1
1
1
1
1
1
1
1
1
1
1
1
1
1
1
1
1
1
1
1
1
1
1
1
1
1
1
1
1
1
4.15374
10.0424
10.4562
10.4449
10.472
10.5216
10.5795
10.6287
10.6634
10.6797
10.6848
10.6934
10.7138
10.7509
10.8029
10.8583
10.9003
10.9204
10.9214
10.9174
10.9265
10.957
11.008
11.0624
11.1036
11.1256
11.1335
11.1387
11.1512
11.1758
11.2105
11.2486
11.2833
11.3098
11.3275
11.3391
11.3494
11.3635
11.3822
11.404
11.4288
11.4555
11.4822
11.5101
11.5377
11.5626
11.5824
11.5974
11.6101
11.6245
11.6411
11.6569
11.6698
11.6821
11.6958
11.7107
11.7243
11.737
11.7513
11.771
11.7955
11.8224
11.8478
11.8677
11.879
11.8829
11.8846
11.8867
11.8899
11.8952
11.9007
11.9106
11.9298
11.9539
11.9782
11.9978
12.0086
12.0086
12.0016
11.9953
11.9953
12.003
12.0164
12.0304
12.0411
12.0463
12.0473
12.0465
12.0455
12.0444
12.0445
12.0421
1
1
1
1
1
1
1
1
1
1
1
1
1
1
1
1
1
1
1
1
1
1
1
1
1
1
1
1
1
1
1
1
1
1
1
1
1
1
1
1
1
1
1
1
1
1
1
1
1
1
1
1
1
1
1
1
1
1
1
1
1
1
1
1
1
1
1
1
1
1
1
1
1
1
1
1
1
1
1
1
1
1
1
1
1
1
1
1
1
1
1
1
1
1
1
1
1
1
1
1
3.95762
9.96923
10.4573
10.4445
10.4688
10.5163
10.574
10.624
10.6612
10.6805
10.6867
10.6928
10.7093
10.744
10.7954
10.8511
10.8946
10.9171
10.9193
10.9139
10.9202
10.9494
11.0003
11.0564
11.1008
11.1256
11.1334
11.1361
11.1456
11.1678
11.202
11.2414
11.2782
11.306
11.3236
11.3345
11.3443
11.3584
11.3771
11.3983
11.4223
11.4494
11.4776
11.5065
11.534
11.5583
11.577
11.5913
11.6048
11.6223
11.6412
11.6561
11.6661
11.6735
11.6831
11.6976
11.7141
11.7321
11.7512
11.7717
11.7935
11.8181
11.8429
11.8636
11.8758
11.8799
11.8799
11.8791
11.8809
11.8867
11.8938
11.9052
11.9243
11.9477
11.9714
11.9912
12.003
12.0042
11.9978
11.9912
11.9908
11.9987
12.0123
12.0264
12.0365
12.0406
12.0406
12.039
12.0381
12.0376
12.0387
12.0362
1
1
1
1
1
1
1
1
1
1
1
1
1
1
1
1
1
1
1
1
1
1
1
1
1
1
1
1
1
1
1
1
1
1
1
1
1
1
1
1
1
1
1
1
1
1
1
1
1
1
1
1
1
1
1
1
1
1
1
1
1
1
1
1
1
1
1
1
1
1
1
1
1
1
1
1
1
1
1
1
1
1
1
1
1
1
1
1
1
1
1
1
1
1
1
1
1
1
1
1
3.74614
9.88159
10.4578
10.4468
10.4685
10.5121
10.5673
10.6166
10.6553
10.678
10.6875
10.6938
10.7084
10.7402
10.7889
10.8417
10.8846
10.9097
10.9158
10.9138
10.9216
10.9501
10.9979
11.05
11.0922
11.1175
11.1272
11.1317
11.1424
11.1648
11.1977
11.2351
11.2697
11.2966
11.3149
11.3281
11.3409
11.3569
11.3762
11.3965
11.4181
11.4431
11.4704
11.499
11.5266
11.5511
11.5702
11.5857
11.6012
11.6215
11.6411
11.654
11.6597
11.6623
11.6687
11.6839
11.7054
11.7301
11.7535
11.7734
11.7906
11.8106
11.8341
11.857
11.8724
11.8784
11.877
11.8723
11.8706
11.8751
11.8845
11.8997
11.9201
11.9434
11.9656
11.9837
11.9955
11.9985
11.9937
11.9878
11.9867
11.9935
12.0062
12.02
12.0303
12.0347
12.0343
12.0319
12.0304
12.0301
12.032
12.0298
1
1
1
1
1
1
1
1
1
1
1
1
1
1
1
1
1
1
1
1
1
1
1
1
1
1
1
1
1
1
1
1
1
1
1
1
1
1
1
1
1
1
1
1
1
1
1
1
1
1
1
1
1
1
1
1
1
1
1
1
1
1
1
1
1
1
1
1
1
1
1
1
1
1
1
1
1
1
1
1
1
1
1
1
1
1
1
1
1
1
1
1
1
1
1
1
1
1
1
1
3.51972
9.78032
10.4579
10.4498
10.469
10.5083
10.5602
10.6082
10.6481
10.6737
10.6867
10.6949
10.7091
10.7379
10.7826
10.8309
10.8721
10.8997
10.9109
10.9153
10.9279
10.9567
11.0002
11.0457
11.0821
11.1042
11.1153
11.1249
11.1412
11.1663
11.1977
11.2306
11.2596
11.283
11.3025
11.3206
11.3392
11.3588
11.3789
11.3971
11.4146
11.4359
11.4612
11.4892
11.517
11.5423
11.5631
11.5806
11.5985
11.6204
11.6394
11.65
11.6517
11.6505
11.6548
11.671
11.6974
11.7283
11.7555
11.7748
11.7874
11.8018
11.8229
11.8477
11.8677
11.8769
11.8749
11.867
11.8604
11.8622
11.8738
11.8929
11.9163
11.9401
11.9606
11.9761
11.9871
11.9914
11.9888
11.9846
11.9828
11.9877
11.9987
12.0118
12.0227
12.028
12.0279
12.0248
12.0224
12.0219
12.0245
12.023
1
1
1
1
1
1
1
1
1
1
1
1
1
1
1
1
1
1
1
1
1
1
1
1
1
1
1
1
1
1
1
1
1
1
1
1
1
1
1
1
1
1
1
1
1
1
1
1
1
1
1
1
1
1
1
1
1
1
1
1
1
1
1
1
1
1
1
1
1
1
1
1
1
1
1
1
1
1
1
1
1
1
1
1
1
1
1
1
1
1
1
1
1
1
1
1
1
1
1
1
3.28375
9.66179
10.4567
10.4526
10.4692
10.5034
10.5523
10.5992
10.6397
10.6679
10.6844
10.6949
10.7092
10.7357
10.7771
10.8215
10.8605
10.8893
10.906
10.9175
10.9355
10.9659
11.005
11.0429
11.0712
11.0884
11.1
11.1154
11.1386
11.1679
11.1986
11.2261
11.2483
11.2677
11.289
11.313
11.3377
11.3616
11.3828
11.3987
11.4118
11.4282
11.4506
11.4775
11.5061
11.5334
11.5568
11.5765
11.5957
11.617
11.6343
11.6432
11.6429
11.6403
11.6444
11.6607
11.6892
11.7239
11.7544
11.7741
11.7841
11.7943
11.812
11.8368
11.8604
11.8732
11.8719
11.8623
11.8518
11.8504
11.8625
11.8846
11.9114
11.9367
11.956
11.9692
11.9783
11.9832
11.9831
11.9806
11.9785
11.9813
11.9901
12.0023
12.0138
12.0202
12.0208
12.0174
12.0141
12.0132
12.0165
12.016
1
1
1
1
1
1
1
1
1
1
1
1
1
1
1
1
1
1
1
1
1
1
1
1
1
1
1
1
1
1
1
1
1
1
1
1
1
1
1
1
1
1
1
1
1
1
1
1
1
1
1
1
1
1
1
1
1
1
1
1
1
1
1
1
1
1
1
1
1
1
1
1
1
1
1
1
1
1
1
1
1
1
1
1
1
1
1
1
1
1
1
1
1
1
1
1
1
1
1
1
3.0414
9.52592
10.4523
10.4509
10.4665
10.4976
10.5446
10.591
10.6316
10.6613
10.6802
10.6927
10.7074
10.7327
10.7722
10.8144
10.8522
10.8815
10.9014
10.9183
10.941
10.9721
11.0076
11.0391
11.061
11.0745
11.0873
11.1076
11.1364
11.1684
11.1978
11.2208
11.2382
11.2543
11.2762
11.3049
11.3356
11.3633
11.3855
11.3996
11.4087
11.4201
11.4388
11.4645
11.4945
11.5247
11.5517
11.5738
11.5928
11.611
11.6255
11.6334
11.6337
11.6328
11.6385
11.6549
11.6821
11.716
11.7478
11.7691
11.78
11.7886
11.8033
11.8259
11.8503
11.8656
11.8662
11.857
11.8445
11.8407
11.852
11.8754
11.9048
11.9319
11.9511
11.9626
11.9698
11.9744
11.9759
11.9749
11.9731
11.9746
11.9813
11.9922
12.0038
12.0112
12.0127
12.0093
12.0054
12.0044
12.0084
12.009
1
1
1
1
1
1
1
1
1
1
1
1
1
1
1
1
1
1
1
1
1
1
1
1
1
1
1
1
1
1
1
1
1
1
1
1
1
1
1
1
1
1
1
1
1
1
1
1
1
1
1
1
1
1
1
1
1
1
1
1
1
1
1
1
1
1
1
1
1
1
1
1
1
1
1
1
1
1
1
1
1
1
1
1
1
1
1
1
1
1
1
1
1
1
1
1
1
1
1
1
2.79376
9.36796
10.4475
10.4456
10.4619
10.4919
10.5379
10.5844
10.6251
10.6545
10.6737
10.6874
10.7027
10.7286
10.7684
10.8107
10.8488
10.8785
10.8995
10.9181
10.9413
10.9713
11.0042
11.0327
11.0528
11.0661
11.08
11.1012
11.131
11.1635
11.1925
11.2143
11.231
11.2453
11.2662
11.2966
11.3308
11.3618
11.3857
11.3994
11.4058
11.4127
11.4269
11.4507
11.482
11.5161
11.5476
11.5724
11.5899
11.6028
11.613
11.6203
11.6239
11.6279
11.6368
11.653
11.6766
11.7059
11.7355
11.7588
11.7739
11.7847
11.798
11.8173
11.8389
11.8542
11.8573
11.8502
11.8384
11.8337
11.8435
11.8661
11.8962
11.9248
11.9448
11.9559
11.9617
11.9654
11.9673
11.9673
11.9663
11.9673
11.9724
11.9819
11.9931
12.0009
12.0031
12.0002
11.9965
11.9956
12
12.0014
1
1
1
1
1
1
1
1
1
1
1
1
1
1
1
1
1
1
1
1
1
1
1
1
1
1
1
1
1
1
1
1
1
1
1
1
1
1
1
1
1
1
1
1
1
1
1
1
1
1
1
1
1
1
1
1
1
1
1
1
1
1
1
1
1
1
1
1
1
1
1
1
1
1
1
1
1
1
1
1
1
1
1
1
1
1
1
1
1
1
1
1
1
1
1
1
1
1
1
1
2.54618
9.18251
10.4418
10.4388
10.4581
10.4882
10.5332
10.5795
10.6197
10.6483
10.6664
10.6798
10.6952
10.7225
10.7639
10.8083
10.8485
10.879
10.9002
10.9174
10.9371
10.9632
10.9945
11.0241
11.0473
11.0638
11.0782
11.096
11.1219
11.153
11.1829
11.2077
11.2272
11.2419
11.2602
11.2887
11.3229
11.3558
11.3824
11.3981
11.4039
11.4069
11.4158
11.4361
11.4679
11.5063
11.5432
11.5711
11.5874
11.5949
11.5991
11.6047
11.6132
11.6245
11.6383
11.6545
11.6733
11.6952
11.7191
11.7436
11.7649
11.781
11.7953
11.8109
11.8272
11.8396
11.8442
11.8404
11.8319
11.8283
11.837
11.8574
11.886
11.9151
11.9366
11.9484
11.9537
11.9564
11.9576
11.9581
11.9582
11.9596
11.964
11.9721
11.982
11.9895
11.9922
11.9903
11.9874
11.987
11.9915
11.993
1
1
1
1
1
1
1
1
1
1
1
1
1
1
1
1
1
1
1
1
1
1
1
1
1
1
1
1
1
1
1
1
1
1
1
1
1
1
1
1
1
1
1
1
1
1
1
1
1
1
1
1
1
1
1
1
1
1
1
1
1
1
1
1
1
1
1
1
1
1
1
1
1
1
1
1
1
1
1
1
1
1
1
1
1
1
1
1
1
1
1
1
1
1
1
1
1
1
1
1
2.30254
8.96643
10.4362
10.4315
10.4563
10.487
10.5306
10.5748
10.6133
10.6407
10.6581
10.6715
10.6876
10.7161
10.759
10.8056
10.8484
10.8809
10.9021
10.9158
10.9293
10.9495
10.9802
11.014
11.0434
11.0647
11.0789
11.091
11.1106
11.139
11.171
11.2021
11.2262
11.2417
11.2567
11.2805
11.3126
11.3467
11.3767
11.3962
11.4031
11.4034
11.4066
11.4213
11.4518
11.494
11.5367
11.5687
11.5848
11.588
11.5867
11.5895
11.6013
11.6197
11.6391
11.6563
11.6709
11.6849
11.7019
11.7254
11.7524
11.7762
11.7933
11.8061
11.8161
11.824
11.8281
11.8273
11.8239
11.8238
11.8325
11.8502
11.8754
11.9034
11.9262
11.9396
11.9455
11.9473
11.9472
11.9476
11.9486
11.951
11.9554
11.9622
11.9703
11.9769
11.98
11.9795
11.9782
11.9783
11.9824
11.9834
1
1
1
1
1
1
1
1
1
1
1
1
1
1
1
1
1
1
1
1
1
1
1
1
1
1
1
1
1
1
1
1
1
1
1
1
1
1
1
1
1
1
1
1
1
1
1
1
1
1
1
1
1
1
1
1
1
1
1
1
1
1
1
1
1
1
1
1
1
1
1
1
1
1
1
1
1
1
1
1
1
1
1
1
1
1
1
1
1
1
1
1
1
1
1
1
1
1
1
1
2.06042
8.71519
10.4315
10.4259
10.456
10.4864
10.5274
10.5684
10.6053
10.6329
10.6515
10.6655
10.6822
10.7101
10.7522
10.8
10.845
10.8796
10.9014
10.9132
10.9218
10.9365
10.9664
11.0046
11.0404
11.0662
11.0793
11.0857
11.0986
11.1239
11.1588
11.1961
11.225
11.2418
11.2538
11.2721
11.3004
11.3351
11.3696
11.3939
11.4031
11.4014
11.3996
11.4077
11.4344
11.4784
11.5264
11.5635
11.581
11.5822
11.5776
11.5775
11.5895
11.613
11.6378
11.6564
11.6678
11.6756
11.6863
11.7076
11.7379
11.7685
11.7898
11.8014
11.8059
11.8084
11.8104
11.8116
11.8141
11.8193
11.8288
11.844
11.8648
11.8899
11.9131
11.9287
11.936
11.9376
11.9363
11.9361
11.9379
11.9416
11.9465
11.952
11.9582
11.9638
11.9673
11.9686
11.9691
11.9697
11.9729
11.9724
1
1
1
1
1
1
1
1
1
1
1
1
1
1
1
1
1
1
1
1
1
1
1
1
1
1
1
1
1
1
1
1
1
1
1
1
1
1
1
1
1
1
1
1
1
1
1
1
1
1
1
1
1
1
1
1
1
1
1
1
1
1
1
1
1
1
1
1
1
1
1
1
1
1
1
1
1
1
1
1
1
1
1
1
1
1
1
1
1
1
1
1
1
1
1
1
1
1
1
1
1.82723
8.43111
10.4303
10.4214
10.4543
10.4838
10.5226
10.5616
10.5973
10.6262
10.6466
10.6619
10.6788
10.7054
10.7447
10.7919
10.8379
10.8743
10.8974
10.9087
10.9151
10.9265
10.9545
10.9948
11.0351
11.0638
11.076
11.0791
11.0881
11.1116
11.1492
11.1905
11.2225
11.24
11.2495
11.2629
11.2874
11.3228
11.3614
11.3902
11.4017
11.3985
11.3936
11.3967
11.4187
11.4618
11.5126
11.5542
11.5752
11.5771
11.5717
11.5697
11.5801
11.6042
11.632
11.6524
11.6625
11.6669
11.6737
11.6927
11.7236
11.758
11.783
11.7948
11.7958
11.7931
11.7923
11.7952
11.803
11.8134
11.8246
11.8379
11.8541
11.8756
11.8982
11.9158
11.925
11.9271
11.925
11.9242
11.9266
11.9313
11.9366
11.9413
11.9458
11.9503
11.9543
11.9576
11.9599
11.9607
11.9624
11.9601
1
1
1
1
1
1
1
1
1
1
1
1
1
1
1
1
1
1
1
1
1
1
1
1
1
1
1
1
1
1
1
1
1
1
1
1
1
1
1
1
1
1
1
1
1
1
1
1
1
1
1
1
1
1
1
1
1
1
1
1
1
1
1
1
1
1
1
1
1
1
1
1
1
1
1
1
1
1
1
1
1
1
1
1
1
1
1
1
1
1
1
1
1
1
1
1
1
1
1
1
1.61114
8.10453
10.4303
10.4188
10.45
10.4794
10.5166
10.5552
10.5912
10.6212
10.6432
10.6597
10.6762
10.7015
10.7372
10.7819
10.8271
10.8646
10.8896
10.9022
10.9098
10.9213
10.9478
10.9866
11.0262
11.0547
11.0673
11.0706
11.0795
11.1033
11.1425
11.1853
11.2183
11.236
11.2438
11.2544
11.2767
11.3124
11.353
11.384
11.3967
11.3934
11.3872
11.388
11.4069
11.4473
11.4967
11.5401
11.5651
11.5708
11.567
11.5651
11.5738
11.5953
11.622
11.6432
11.6539
11.658
11.6639
11.6816
11.7112
11.7458
11.7724
11.7845
11.784
11.7782
11.7757
11.7799
11.7913
11.8057
11.8186
11.8308
11.8431
11.861
11.8823
11.9013
11.9124
11.9156
11.9134
11.9121
11.9145
11.9199
11.9255
11.9297
11.933
11.9367
11.9415
11.9466
11.9502
11.9509
11.9509
11.9466
1
1
1
1
1
1
1
1
1
1
1
1
1
1
1
1
1
1
1
1
1
1
1
1
1
1
1
1
1
1
1
1
1
1
1
1
1
1
1
1
1
1
1
1
1
1
1
1
1
1
1
1
1
1
1
1
1
1
1
1
1
1
1
1
1
1
1
1
1
1
1
1
1
1
1
1
1
1
1
1
1
1
1
1
1
1
1
1
1
1
1
1
1
1
1
1
1
1
1
1
1.42353
7.7439
10.4216
10.4173
10.4417
10.471
10.5087
10.5481
10.5853
10.6166
10.6397
10.6567
10.6732
10.6966
10.7298
10.7718
10.8155
10.8525
10.8783
10.8936
10.9045
10.918
10.9439
10.9809
11.0185
11.0451
11.0575
11.0633
11.0751
11.1
11.1383
11.1788
11.2096
11.2268
11.2358
11.2475
11.27
11.3049
11.3435
11.3729
11.3857
11.3838
11.379
11.381
11.4
11.4371
11.4817
11.5225
11.5501
11.561
11.5615
11.5621
11.5701
11.5877
11.6102
11.6298
11.6416
11.6477
11.6556
11.6738
11.7015
11.7331
11.7582
11.7699
11.7695
11.7636
11.7612
11.7664
11.7799
11.796
11.8099
11.8211
11.8311
11.8463
11.8663
11.8857
11.8985
11.9029
11.9011
11.8996
11.9019
11.9073
11.913
11.9173
11.9202
11.9236
11.9289
11.9352
11.9397
11.94
11.9383
11.9323
1
1
1
1
1
1
1
1
1
1
1
1
1
1
1
1
1
1
1
1
1
1
1
1
1
1
1
1
1
1
1
1
1
1
1
1
1
1
1
1
1
1
1
1
1
1
1
1
1
1
1
1
1
1
1
1
1
1
1
1
1
1
1
1
1
1
1
1
1
1
1
1
1
1
1
1
1
1
1
1
1
1
1
1
1
1
1
1
1
1
1
1
1
1
1
1
1
1
1
1
1.25327
7.35123
10.4004
10.4106
10.4317
10.4626
10.4993
10.5401
10.5807
10.6146
10.639
10.656
10.6724
10.6938
10.7236
10.7627
10.8047
10.8412
10.8678
10.8866
10.9014
10.9167
10.9405
10.9725
11.0041
11.0276
11.0435
11.0565
11.0734
11.0988
11.1328
11.1678
11.1955
11.2137
11.2273
11.2434
11.268
11.3009
11.3341
11.358
11.3686
11.3692
11.3687
11.3757
11.3974
11.4317
11.4697
11.5044
11.5306
11.5457
11.5528
11.5583
11.5676
11.582
11.599
11.6145
11.626
11.6348
11.6469
11.6675
11.6936
11.7206
11.7417
11.7519
11.7525
11.749
11.7487
11.7554
11.7693
11.7847
11.7978
11.8082
11.8175
11.8318
11.8509
11.8702
11.8836
11.8889
11.8879
11.8863
11.8884
11.8935
11.8993
11.9041
11.9074
11.9109
11.9164
11.9232
11.9277
11.9276
11.9248
11.9179
1
1
1
1
1
1
1
1
1
1
1
1
1
1
1
1
1
1
1
1
1
1
1
1
1
1
1
1
1
1
1
1
1
1
1
1
1
1
1
1
1
1
1
1
1
1
1
1
1
1
1
1
1
1
1
1
1
1
1
1
1
1
1
1
1
1
1
1
1
1
1
1
1
1
1
1
1
1
1
1
1
1
1
1
1
1
1
1
1
1
1
1
1
1
1
1
1
1
1
1
1.08282
6.92455
10.3808
10.4064
10.4269
10.4554
10.4881
10.5269
10.5673
10.6034
10.6322
10.6531
10.6709
10.6897
10.7156
10.7513
10.7913
10.8276
10.8563
10.8794
10.8982
10.9151
10.9363
10.9626
10.9885
11.0111
11.033
11.0544
11.0758
11.1001
11.1274
11.1539
11.1767
11.1968
11.2175
11.2406
11.2683
11.2982
11.324
11.3405
11.3479
11.3507
11.3565
11.3712
11.3969
11.4292
11.4611
11.4887
11.5103
11.5263
11.539
11.551
11.5637
11.5768
11.5889
11.5995
11.6089
11.6197
11.6366
11.6605
11.686
11.7083
11.724
11.7319
11.7339
11.7347
11.7379
11.7464
11.7595
11.772
11.7825
11.792
11.8022
11.8173
11.8364
11.8551
11.8681
11.8737
11.8733
11.8719
11.8738
11.8787
11.8848
11.8905
11.8948
11.8985
11.9037
11.91
11.9141
11.9136
11.9102
11.9036
1
1
1
1
1
1
1
1
1
1
1
1
1
1
1
1
1
1
1
1
1
1
1
1
1
1
1
1
1
1
1
1
1
1
1
1
1
1
1
1
1
1
1
1
1
1
1
1
1
1
1
1
1
1
1
1
1
1
1
1
1
1
1
1
1
1
1
1
1
1
1
1
1
1
1
1
1
1
1
1
1
1
1
1
1
1
1
1
1
1
1
1
1
1
1
1
1
1
1
1
1.00297
6.45006
10.3216
10.3817
10.4133
10.4463
10.4793
10.5175
10.5576
10.5953
10.6265
10.6496
10.6682
10.6858
10.7096
10.7426
10.7802
10.8153
10.8451
10.8716
10.8941
10.9127
10.9312
10.9516
10.9723
10.9956
11.0244
11.0529
11.0778
11.0997
11.1195
11.1373
11.1562
11.1791
11.2072
11.2373
11.2673
11.2937
11.3128
11.3235
11.3283
11.3325
11.3434
11.3648
11.3946
11.4261
11.4538
11.4755
11.4921
11.5065
11.5219
11.5393
11.5566
11.5705
11.5799
11.5863
11.5926
11.6036
11.6237
11.6507
11.6765
11.6955
11.7064
11.7116
11.7149
11.7205
11.7286
11.7383
11.7496
11.7579
11.7646
11.7734
11.7855
11.8029
11.8226
11.8404
11.8519
11.8571
11.8572
11.8562
11.8583
11.8631
11.8697
11.8766
11.8821
11.8863
11.8906
11.8956
11.8986
11.8978
11.8948
11.8894
1
1
1
1
1
1
1
1
1
1
1
1
1
1
1
1
1
1
1
1
1
1
1
1
1
1
1
1
1
1
1
1
1
1
1
1
1
1
1
1
1
1
1
1
1
1
1
1
1
1
1
1
1
1
1
1
1
1
1
1
1
1
1
1
1
1
1
1
1
1
1
1
1
1
1
1
1
1
1
1
1
1
1
1
1
1
1
1
1
1
1
1
1
1
1
1
1
1
1
1
1.00002
5.87715
10.2539
10.3619
10.4014
10.4386
10.4718
10.5081
10.5463
10.5838
10.616
10.6411
10.6613
10.6793
10.7028
10.7341
10.7695
10.8024
10.8329
10.8626
10.8879
10.9077
10.9241
10.9406
10.9581
10.9832
11.0174
11.0505
11.0771
11.0959
11.1089
11.1203
11.1379
11.1638
11.1965
11.2307
11.2614
11.2849
11.3002
11.3087
11.3137
11.3196
11.3327
11.3558
11.3864
11.4178
11.4439
11.463
11.4767
11.4891
11.5044
11.5242
11.545
11.5614
11.571
11.5753
11.5789
11.5883
11.6088
11.637
11.6633
11.681
11.6892
11.6926
11.6966
11.707
11.7197
11.7301
11.7386
11.7422
11.7452
11.7538
11.7683
11.7886
11.8091
11.8254
11.835
11.8392
11.8396
11.8394
11.842
11.8471
11.8544
11.8623
11.8692
11.8737
11.8767
11.8797
11.8813
11.8804
11.8784
11.875
1
1
1
1
1
1
1
1
1
1
1
1
1
1
1
1
1
1
1
1
1
1
1
1
1
1
1
1
1
1
1
1
1
1
1
1
1
1
1
1
1
1
1
1
1
1
1
1
1
1
1
1
1
1
1
1
1
1
1
1
1
1
1
1
1
1
1
1
1
1
1
1
1
1
1
1
1
1
1
1
1
1
1
1
1
1
1
1
1
1
1
1
1
1
1
1
1
1
1
1
1
5.27463
10.1698
10.3446
10.3911
10.4323
10.4663
10.501
10.5369
10.5728
10.6041
10.6303
10.6524
10.6719
10.6958
10.7261
10.7596
10.7907
10.822
10.8537
10.8801
10.8999
10.9153
10.9298
10.946
10.9734
11.0105
11.0445
11.0704
11.0869
11.0963
11.105
11.1248
11.1543
11.1881
11.2209
11.2488
11.2695
11.2843
11.2952
11.3038
11.3128
11.3261
11.3461
11.3727
11.4023
11.4293
11.45
11.4644
11.4757
11.4889
11.5071
11.5287
11.548
11.5602
11.5654
11.568
11.5752
11.5934
11.6201
11.6462
11.6638
11.672
11.6752
11.6804
11.6942
11.7102
11.7202
11.7257
11.7249
11.7252
11.7343
11.7515
11.7743
11.7953
11.8096
11.8168
11.8198
11.8207
11.8217
11.8251
11.8307
11.8388
11.8476
11.8557
11.8605
11.8618
11.8624
11.8624
11.8615
11.8611
11.8601
1
1
1
1
1
1
1
1
1
1
1
1
1
1
1
1
1
1
1
1
1
1
1
1
1
1
1
1
1
1
1
1
1
1
1
1
1
1
1
1
1
1
1
1
1
1
1
1
1
1
1
1
1
1
1
1
1
1
1
1
1
1
1
1
1
1
1
1
1
1
1
1
1
1
1
1
1
1
1
1
1
1
1
1
1
1
1
1
1
1
1
1
1
1
1
1
1
1
1
1
1
4.65796
10.0542
10.3344
10.3833
10.4259
10.4611
10.4943
10.5277
10.5616
10.5918
10.6186
10.6417
10.662
10.6863
10.7164
10.7491
10.78
10.8127
10.8449
10.8706
10.8896
10.9047
10.9194
10.937
10.9677
11.0055
11.0368
11.0583
11.0712
11.0795
11.0899
11.1155
11.1493
11.1823
11.2102
11.2313
11.2484
11.265
11.2819
11.2975
11.3105
11.3225
11.3363
11.3551
11.3805
11.4094
11.4353
11.4541
11.4663
11.477
11.4907
11.5095
11.5299
11.5459
11.5545
11.5584
11.5642
11.5786
11.6013
11.6256
11.644
11.6542
11.6593
11.6665
11.6822
11.6991
11.7078
11.7103
11.7064
11.7055
11.716
11.7356
11.7603
11.7808
11.7924
11.7969
11.7988
11.8007
11.8035
11.8077
11.814
11.8227
11.8323
11.8415
11.8461
11.8459
11.8439
11.8421
11.8412
11.8427
11.8441
1
1
1
1
1
1
1
1
1
1
1
1
1
1
1
1
1
1
1
1
1
1
1
1
1
1
1
1
1
1
1
1
1
1
1
1
1
1
1
1
1
1
1
1
1
1
1
1
1
1
1
1
1
1
1
1
1
1
1
1
1
1
1
1
1
1
1
1
1
1
1
1
1
1
1
1
1
1
1
1
1
1
1
1
1
1
1
1
1
1
1
1
1
1
1
1
1
1
1
1
1
4.05093
9.89415
10.3329
10.3783
10.4184
10.4542
10.4874
10.5189
10.5505
10.5807
10.6092
10.6328
10.6523
10.6753
10.705
10.7382
10.7712
10.8064
10.8387
10.862
10.8775
10.891
10.9071
10.929
10.9635
11.0001
11.0269
11.0423
11.0513
11.06
11.0756
11.1083
11.1461
11.1785
11.2011
11.2148
11.2264
11.244
11.2676
11.2914
11.3087
11.3189
11.326
11.3366
11.3561
11.3859
11.4182
11.4439
11.4591
11.4678
11.4764
11.4899
11.5087
11.5278
11.5416
11.5488
11.5543
11.5646
11.582
11.6031
11.6222
11.6357
11.6444
11.6546
11.6707
11.6862
11.6925
11.6922
11.6866
11.6862
11.6988
11.7208
11.7461
11.7653
11.7736
11.7752
11.7765
11.7796
11.7846
11.7903
11.7971
11.8061
11.8163
11.826
11.8305
11.8288
11.8245
11.8209
11.8199
11.8231
11.8266
1
1
1
1
1
1
1
1
1
1
1
1
1
1
1
1
1
1
1
1
1
1
1
1
1
1
1
1
1
1
1
1
1
1
1
1
1
1
1
1
1
1
1
1
1
1
1
1
1
1
1
1
1
1
1
1
1
1
1
1
1
1
1
1
1
1
1
1
1
1
1
1
1
1
1
1
1
1
1
1
1
1
1
1
1
1
1
1
1
1
1
1
1
1
1
1
1
1
1
1
1
3.47073
9.68104
10.3377
10.3695
10.4094
10.4455
10.4796
10.5122
10.544
10.5735
10.601
10.6227
10.64
10.6609
10.6908
10.7261
10.7634
10.8014
10.8327
10.8526
10.8636
10.8754
10.8939
10.9215
10.9591
10.9945
11.0174
11.0277
11.0319
11.0404
11.061
11.1
11.1414
11.1741
11.1939
11.2023
11.2084
11.2243
11.2511
11.281
11.3027
11.3129
11.3162
11.3204
11.3341
11.3625
11.3986
11.4306
11.4502
11.4587
11.4635
11.4716
11.4872
11.5079
11.5265
11.5379
11.544
11.551
11.5628
11.58
11.5992
11.6164
11.63
11.6435
11.659
11.6714
11.6743
11.6716
11.6659
11.6674
11.6828
11.7069
11.7319
11.7485
11.7534
11.7522
11.7528
11.7575
11.7649
11.7724
11.7799
11.7887
11.7992
11.8093
11.8134
11.8107
11.8042
11.7989
11.7977
11.8022
11.8071
1
1
1
1
1
1
1
1
1
1
1
1
1
1
1
1
1
1
1
1
1
1
1
1
1
1
1
1
1
1
1
1
1
1
1
1
1
1
1
1
1
1
1
1
1
1
1
1
1
1
1
1
1
1
1
1
1
1
1
1
1
1
1
1
1
1
1
1
1
1
1
1
1
1
1
1
1
1
1
1
1
1
1
1
1
1
1
1
1
1
1
1
1
1
1
1
1
1
1
1
1
2.93549
9.39686
10.3392
10.3689
10.4063
10.4376
10.4708
10.5031
10.5358
10.5674
10.596
10.6152
10.6288
10.6473
10.6769
10.7143
10.7557
10.7954
10.8255
10.8422
10.8499
10.86
10.8804
10.9124
10.9517
10.9865
11.0076
11.0158
11.0172
11.0241
11.0457
11.0872
11.1319
11.1671
11.1874
11.1941
11.197
11.2094
11.2338
11.2649
11.2897
11.3022
11.3053
11.3074
11.3177
11.3432
11.3791
11.4137
11.4367
11.4465
11.4502
11.4549
11.4672
11.4878
11.5095
11.5246
11.5319
11.5369
11.5443
11.5576
11.5762
11.5967
11.6152
11.6319
11.6461
11.6546
11.654
11.6494
11.6445
11.6491
11.6676
11.6932
11.7169
11.7304
11.7319
11.7285
11.7281
11.7341
11.7441
11.7538
11.7619
11.7705
11.7811
11.791
11.7948
11.7913
11.7833
11.7765
11.7747
11.7801
11.7857
1
1
1
1
1
1
1
1
1
1
1
1
1
1
1
1
1
1
1
1
1
1
1
1
1
1
1
1
1
1
1
1
1
1
1
1
1
1
1
1
1
1
1
1
1
1
1
1
1
1
1
1
1
1
1
1
1
1
1
1
1
1
1
1
1
1
1
1
1
1
1
1
1
1
1
1
1
1
1
1
1
1
1
1
1
1
1
1
1
1
1
1
1
1
1
1
1
1
1
1
1
2.43382
9.03145
10.3462
10.375
10.4059
10.4319
10.4625
10.4948
10.5282
10.5604
10.5888
10.6081
10.6206
10.6367
10.6649
10.7035
10.7468
10.7862
10.8147
10.8303
10.8384
10.8481
10.8684
10.9005
10.9386
10.9729
10.9954
11.0054
11.0077
11.014
11.0331
11.0707
11.115
11.1535
11.1782
11.1877
11.1909
11.2003
11.2186
11.2448
11.2695
11.2851
11.2919
11.2969
11.3072
11.3297
11.3618
11.3943
11.4181
11.4301
11.4352
11.4393
11.4497
11.4689
11.4914
11.5084