/*--------------------------------*- C++ -*----------------------------------*\
  =========                 |
  \\      /  F ield         | OpenFOAM: The Open Source CFD Toolbox
   \\    /   O peration     | Website:  https://openfoam.org
    \\  /    A nd           | Version:  7
     \\/     M anipulation  |
\*---------------------------------------------------------------------------*/
FoamFile
{
    version     2.0;
    format      ascii;
    class       volScalarField;
    location    "2.1";
    object      rho;
}
// * * * * * * * * * * * * * * * * * * * * * * * * * * * * * * * * * * * * * //

dimensions      [1 -3 0 0 0 0 0];

internalField   nonuniform List<scalar> 
258048
(
1.40001
1.40001
1.40001
1.40001
1.40001
1.40001
1.40001
1.40001
1.40001
1.40001
1.40001
1.40001
1.40001
1.40001
1.40001
1.40001
1.40001
1.40001
1.40001
1.40001
1.40001
1.40001
1.40001
1.40001
1.40001
1.40001
1.40001
1.40001
1.40001
1.40001
1.40001
1.40001
1.40001
1.40001
1.40001
1.40001
1.40001
1.40001
1.40001
1.40001
1.40001
1.40001
1.40001
1.40001
1.40001
1.40001
1.40001
1.40001
1.40001
1.40001
1.40001
1.40001
1.40001
1.40001
1.40001
1.40001
1.40001
1.40001
1.40001
1.40001
1.40001
1.40001
1.40001
1.40001
1.40001
1.40001
1.40001
1.40001
1.40001
1.40001
1.40001
1.40001
1.40001
1.40001
1.40001
1.40001
1.40001
1.40001
1.40001
1.40001
1.40001
1.40001
1.40001
1.40001
1.40001
1.40001
1.40001
1.40001
1.40001
1.40001
1.40001
1.40001
1.40001
1.40001
1.40001
1.40001
1.40001
1.40001
1.40001
1.40001
3.41454
5.3393
5.42749
5.43279
5.44516
5.4548
5.46856
5.48647
5.50576
5.52212
5.53239
5.53826
5.54284
5.54794
5.55442
5.56104
5.56775
5.57661
5.59336
5.6113
5.62787
5.64267
5.65186
5.65314
5.64958
5.64687
5.65148
5.66391
5.68074
5.69846
5.71366
5.72445
5.73092
5.73545
5.74208
5.75311
5.76642
5.77868
5.78766
5.79295
5.79666
5.80124
5.80843
5.81884
5.83059
5.84051
5.84559
5.84632
5.84634
5.84865
5.85529
5.86474
5.87271
5.87632
5.8771
5.87815
5.88063
5.88719
5.89857
5.91048
5.91853
5.92226
5.9246
5.92793
5.93441
5.94304
5.95176
5.9566
5.95498
5.95004
5.94563
5.94572
5.95187
5.96188
5.97242
5.98013
5.98313
5.98187
5.97791
5.97334
5.9697
5.9675
5.9669
5.96842
5.97083
5.9717
5.96766
5.95505
5.93423
5.90998
5.88963
5.87613
1.40001
1.40001
1.40001
1.40001
1.40001
1.40001
1.40001
1.40001
1.40001
1.40001
1.40001
1.40001
1.40001
1.40001
1.40001
1.40001
1.40001
1.40001
1.40001
1.40001
1.40001
1.40001
1.40001
1.40001
1.40001
1.40001
1.40001
1.40001
1.40001
1.40001
1.40001
1.40001
1.40001
1.40001
1.40001
1.40001
1.40001
1.40001
1.40001
1.40001
1.40001
1.40001
1.40001
1.40001
1.40001
1.40001
1.40001
1.40001
1.40001
1.40001
1.40001
1.40001
1.40001
1.40001
1.40001
1.40001
1.40001
1.40001
1.40001
1.40001
1.40001
1.40001
1.40001
1.40001
1.40001
1.40001
1.40001
1.40001
1.40001
1.40001
1.40001
1.40001
1.40001
1.40001
1.40001
1.40001
1.40001
1.40001
1.40001
1.40001
1.40001
1.40001
1.40001
1.40001
1.40001
1.40001
1.40001
1.40001
1.40001
1.40001
1.40001
1.40001
1.40001
1.40001
1.40001
1.40001
1.40001
1.40001
1.40001
1.40001
3.40235
5.33061
5.42606
5.43482
5.44856
5.45799
5.4705
5.48642
5.50405
5.51995
5.53104
5.5378
5.54319
5.5492
5.556
5.56223
5.56746
5.57506
5.59153
5.60996
5.62738
5.64254
5.65196
5.65347
5.65002
5.64748
5.65197
5.66431
5.68104
5.69866
5.7138
5.72459
5.73103
5.73533
5.74137
5.75179
5.76497
5.77769
5.78746
5.79354
5.79748
5.8016
5.80778
5.8174
5.82906
5.83982
5.8466
5.84885
5.84921
5.85033
5.85428
5.86142
5.86913
5.87446
5.87756
5.88048
5.88366
5.88915
5.89778
5.90752
5.91523
5.92045
5.92487
5.92998
5.93723
5.94503
5.95171
5.95465
5.95264
5.94857
5.94546
5.94669
5.95324
5.96269
5.97221
5.97912
5.98197
5.98114
5.9777
5.97322
5.96949
5.96719
5.9667
5.96855
5.97116
5.97192
5.9674
5.95421
5.93299
5.90893
5.88953
5.87717
1.40001
1.40001
1.40001
1.40001
1.40001
1.40001
1.40001
1.40001
1.40001
1.40001
1.40001
1.40001
1.40001
1.40001
1.40001
1.40001
1.40001
1.40001
1.40001
1.40001
1.40001
1.40001
1.40001
1.40001
1.40001
1.40001
1.40001
1.40001
1.40001
1.40001
1.40001
1.40001
1.40001
1.40001
1.40001
1.40001
1.40001
1.40001
1.40001
1.40001
1.40001
1.40001
1.40001
1.40001
1.40001
1.40001
1.40001
1.40001
1.40001
1.40001
1.40001
1.40001
1.40001
1.40001
1.40001
1.40001
1.40001
1.40001
1.40001
1.40001
1.40001
1.40001
1.40001
1.40001
1.40001
1.40001
1.40001
1.40001
1.40001
1.40001
1.40001
1.40001
1.40001
1.40001
1.40001
1.40001
1.40001
1.40001
1.40001
1.40001
1.40001
1.40001
1.40001
1.40001
1.40001
1.40001
1.40001
1.40001
1.40001
1.40001
1.40001
1.40001
1.40001
1.40001
1.40001
1.40001
1.40001
1.40001
1.40001
1.40001
3.38062
5.32481
5.42209
5.4368
5.45215
5.46224
5.47392
5.48745
5.50295
5.51742
5.52859
5.53629
5.54284
5.54993
5.55728
5.56333
5.5677
5.57361
5.5884
5.60693
5.62506
5.64083
5.65101
5.65324
5.65019
5.64795
5.65248
5.6648
5.68143
5.69884
5.71386
5.72465
5.73115
5.73536
5.74089
5.75051
5.76325
5.77623
5.78687
5.79399
5.79846
5.80224
5.80722
5.81547
5.82659
5.83805
5.84674
5.85128
5.8529
5.85352
5.8548
5.8583
5.86402
5.87027
5.87603
5.88177
5.88714
5.8925
5.8984
5.9046
5.91045
5.9163
5.92298
5.93103
5.94038
5.94823
5.95261
5.95261
5.94917
5.94534
5.94374
5.94688
5.95468
5.96408
5.97239
5.97793
5.98014
5.97968
5.97707
5.97313
5.96947
5.96696
5.96644
5.96837
5.97105
5.97182
5.96692
5.95311
5.93138
5.90756
5.88931
5.87854
1.40001
1.40001
1.40001
1.40001
1.40001
1.40001
1.40001
1.40001
1.40001
1.40001
1.40001
1.40001
1.40001
1.40001
1.40001
1.40001
1.40001
1.40001
1.40001
1.40001
1.40001
1.40001
1.40001
1.40001
1.40001
1.40001
1.40001
1.40001
1.40001
1.40001
1.40001
1.40001
1.40001
1.40001
1.40001
1.40001
1.40001
1.40001
1.40001
1.40001
1.40001
1.40001
1.40001
1.40001
1.40001
1.40001
1.40001
1.40001
1.40001
1.40001
1.40001
1.40001
1.40001
1.40001
1.40001
1.40001
1.40001
1.40001
1.40001
1.40001
1.40001
1.40001
1.40001
1.40001
1.40001
1.40001
1.40001
1.40001
1.40001
1.40001
1.40001
1.40001
1.40001
1.40001
1.40001
1.40001
1.40001
1.40001
1.40001
1.40001
1.40001
1.40001
1.40001
1.40001
1.40001
1.40001
1.40001
1.40001
1.40001
1.40001
1.40001
1.40001
1.40001
1.40001
1.40001
1.40001
1.40001
1.40001
1.40001
1.40001
3.34683
5.32366
5.41676
5.43634
5.45375
5.46539
5.47751
5.48919
5.50266
5.51528
5.526
5.53427
5.54192
5.54985
5.55761
5.56369
5.5677
5.57259
5.58596
5.60425
5.62258
5.63866
5.64969
5.65301
5.65065
5.6488
5.65321
5.66531
5.68172
5.69892
5.71378
5.72451
5.731
5.73512
5.74024
5.74921
5.76156
5.77469
5.78608
5.79426
5.79946
5.80288
5.80663
5.81326
5.82363
5.83595
5.84685
5.85379
5.85644
5.85619
5.85509
5.85543
5.85912
5.86618
5.87488
5.88352
5.89047
5.89496
5.89804
5.90119
5.90579
5.91255
5.92189
5.93301
5.94367
5.95091
5.95323
5.95055
5.94542
5.94198
5.94208
5.94711
5.95595
5.96515
5.97233
5.97661
5.9782
5.97796
5.97605
5.9727
5.96918
5.96659
5.96619
5.96826
5.97102
5.97164
5.96599
5.95134
5.92914
5.90582
5.88902
5.88013
1.40001
1.40001
1.40001
1.40001
1.40001
1.40001
1.40001
1.40001
1.40001
1.40001
1.40001
1.40001
1.40001
1.40001
1.40001
1.40001
1.40001
1.40001
1.40001
1.40001
1.40001
1.40001
1.40001
1.40001
1.40001
1.40001
1.40001
1.40001
1.40001
1.40001
1.40001
1.40001
1.40001
1.40001
1.40001
1.40001
1.40001
1.40001
1.40001
1.40001
1.40001
1.40001
1.40001
1.40001
1.40001
1.40001
1.40001
1.40001
1.40001
1.40001
1.40001
1.40001
1.40001
1.40001
1.40001
1.40001
1.40001
1.40001
1.40001
1.40001
1.40001
1.40001
1.40001
1.40001
1.40001
1.40001
1.40001
1.40001
1.40001
1.40001
1.40001
1.40001
1.40001
1.40001
1.40001
1.40001
1.40001
1.40001
1.40001
1.40001
1.40001
1.40001
1.40001
1.40001
1.40001
1.40001
1.40001
1.40001
1.40001
1.40001
1.40001
1.40001
1.40001
1.40001
1.40001
1.40001
1.40001
1.40001
1.40001
1.40001
3.30675
5.32235
5.4163
5.43393
5.45123
5.46549
5.47999
5.49204
5.50374
5.51404
5.5233
5.53155
5.53945
5.5479
5.55643
5.56351
5.56877
5.57364
5.58502
5.60182
5.61948
5.63561
5.64765
5.65253
5.65145
5.65012
5.65417
5.6657
5.68177
5.69873
5.71345
5.72414
5.73066
5.73492
5.74001
5.74859
5.76045
5.77336
5.78502
5.79392
5.7999
5.80342
5.80629
5.81163
5.82104
5.83363
5.84623
5.85506
5.85867
5.85795
5.85519
5.85349
5.85573
5.86294
5.87374
5.88447
5.89218
5.89587
5.89703
5.89817
5.90186
5.90981
5.92141
5.93476
5.94605
5.95234
5.95312
5.94879
5.94252
5.93901
5.94018
5.94658
5.9562
5.96539
5.97189
5.97537
5.97647
5.97626
5.97473
5.97182
5.96857
5.96616
5.96603
5.96825
5.97097
5.97122
5.96459
5.94907
5.92658
5.90394
5.88859
5.88151
1.40001
1.40001
1.40001
1.40001
1.40001
1.40001
1.40001
1.40001
1.40001
1.40001
1.40001
1.40001
1.40001
1.40001
1.40001
1.40001
1.40001
1.40001
1.40001
1.40001
1.40001
1.40001
1.40001
1.40001
1.40001
1.40001
1.40001
1.40001
1.40001
1.40001
1.40001
1.40001
1.40001
1.40001
1.40001
1.40001
1.40001
1.40001
1.40001
1.40001
1.40001
1.40001
1.40001
1.40001
1.40001
1.40001
1.40001
1.40001
1.40001
1.40001
1.40001
1.40001
1.40001
1.40001
1.40001
1.40001
1.40001
1.40001
1.40001
1.40001
1.40001
1.40001
1.40001
1.40001
1.40001
1.40001
1.40001
1.40001
1.40001
1.40001
1.40001
1.40001
1.40001
1.40001
1.40001
1.40001
1.40001
1.40001
1.40001
1.40001
1.40001
1.40001
1.40001
1.40001
1.40001
1.40001
1.40001
1.40001
1.40001
1.40001
1.40001
1.40001
1.40001
1.40001
1.40001
1.40001
1.40001
1.40001
1.40001
1.40001
3.2614
5.31952
5.41748
5.42984
5.44662
5.46324
5.48013
5.49445
5.50594
5.51421
5.52138
5.52885
5.53611
5.54449
5.55397
5.56303
5.57062
5.57648
5.5855
5.59965
5.6158
5.63175
5.64494
5.65193
5.65283
5.65228
5.6557
5.66602
5.68123
5.69774
5.71239
5.72326
5.73016
5.73493
5.74026
5.74851
5.75963
5.77191
5.78345
5.79284
5.79951
5.80358
5.80636
5.81106
5.8197
5.83167
5.84459
5.85444
5.85893
5.85843
5.85533
5.85297
5.85468
5.86177
5.87283
5.88376
5.89122
5.89442
5.89476
5.89542
5.89973
5.90906
5.92199
5.93577
5.94661
5.95201
5.95205
5.94726
5.94079
5.93729
5.93844
5.94489
5.95482
5.96436
5.97094
5.97435
5.9753
5.9749
5.97322
5.97038
5.96746
5.9656
5.96608
5.96848
5.971
5.97037
5.96264
5.94639
5.92385
5.90199
5.88795
5.88226
1.40001
1.40001
1.40001
1.40001
1.40001
1.40001
1.40001
1.40001
1.40001
1.40001
1.40001
1.40001
1.40001
1.40001
1.40001
1.40001
1.40001
1.40001
1.40001
1.40001
1.40001
1.40001
1.40001
1.40001
1.40001
1.40001
1.40001
1.40001
1.40001
1.40001
1.40001
1.40001
1.40001
1.40001
1.40001
1.40001
1.40001
1.40001
1.40001
1.40001
1.40001
1.40001
1.40001
1.40001
1.40001
1.40001
1.40001
1.40001
1.40001
1.40001
1.40001
1.40001
1.40001
1.40001
1.40001
1.40001
1.40001
1.40001
1.40001
1.40001
1.40001
1.40001
1.40001
1.40001
1.40001
1.40001
1.40001
1.40001
1.40001
1.40001
1.40001
1.40001
1.40001
1.40001
1.40001
1.40001
1.40001
1.40001
1.40001
1.40001
1.40001
1.40001
1.40001
1.40001
1.40001
1.40001
1.40001
1.40001
1.40001
1.40001
1.40001
1.40001
1.40001
1.40001
1.40001
1.40001
1.40001
1.40001
1.40001
1.40001
3.20941
5.31605
5.41733
5.42588
5.44125
5.45979
5.47932
5.49621
5.50849
5.51556
5.52041
5.52618
5.53246
5.54059
5.55112
5.56261
5.5727
5.57995
5.58679
5.59752
5.61144
5.62694
5.64141
5.65103
5.65458
5.65526
5.65804
5.6665
5.68003
5.69571
5.71039
5.7219
5.72981
5.73552
5.74125
5.74897
5.75893
5.77007
5.78114
5.79086
5.79831
5.80326
5.80675
5.81162
5.81968
5.83057
5.84229
5.85185
5.85686
5.85747
5.85553
5.85386
5.85571
5.86228
5.87203
5.88158
5.88812
5.89093
5.89147
5.89335
5.89955
5.91017
5.92329
5.93595
5.94549
5.95012
5.95004
5.94576
5.93992
5.9366
5.93715
5.94264
5.95207
5.96199
5.96941
5.97348
5.97472
5.97392
5.97153
5.96849
5.96595
5.96491
5.96617
5.96883
5.97085
5.96909
5.9603
5.94342
5.92104
5.90003
5.88708
5.88228
1.40001
1.40001
1.40001
1.40001
1.40001
1.40001
1.40001
1.40001
1.40001
1.40001
1.40001
1.40001
1.40001
1.40001
1.40001
1.40001
1.40001
1.40001
1.40001
1.40001
1.40001
1.40001
1.40001
1.40001
1.40001
1.40001
1.40001
1.40001
1.40001
1.40001
1.40001
1.40001
1.40001
1.40001
1.40001
1.40001
1.40001
1.40001
1.40001
1.40001
1.40001
1.40001
1.40001
1.40001
1.40001
1.40001
1.40001
1.40001
1.40001
1.40001
1.40001
1.40001
1.40001
1.40001
1.40001
1.40001
1.40001
1.40001
1.40001
1.40001
1.40001
1.40001
1.40001
1.40001
1.40001
1.40001
1.40001
1.40001
1.40001
1.40001
1.40001
1.40001
1.40001
1.40001
1.40001
1.40001
1.40001
1.40001
1.40001
1.40001
1.40001
1.40001
1.40001
1.40001
1.40001
1.40001
1.40001
1.40001
1.40001
1.40001
1.40001
1.40001
1.40001
1.40001
1.40001
1.40001
1.40001
1.40001
1.40001
1.40001
3.14801
5.31103
5.41666
5.42043
5.43501
5.45555
5.47796
5.49729
5.51075
5.51748
5.52038
5.52388
5.52881
5.53668
5.54854
5.56257
5.57508
5.5833
5.58827
5.59537
5.60642
5.6213
5.63724
5.64982
5.65645
5.65876
5.66102
5.66725
5.67833
5.69268
5.70748
5.72015
5.72966
5.73671
5.74284
5.74973
5.75802
5.76767
5.77808
5.78803
5.79633
5.80245
5.80699
5.81248
5.82017
5.82982
5.83985
5.84831
5.85345
5.85524
5.8551
5.85509
5.85758
5.86321
5.87106
5.87863
5.88387
5.88645
5.88805
5.89218
5.90044
5.9121
5.92469
5.93588
5.94371
5.94734
5.94735
5.94407
5.93931
5.93629
5.9362
5.94026
5.94873
5.95875
5.96724
5.97249
5.97438
5.97316
5.96981
5.96634
5.96422
5.96413
5.96618
5.96899
5.97038
5.96755
5.95774
5.94035
5.91825
5.89805
5.88596
5.88161
1.40001
1.40001
1.40001
1.40001
1.40001
1.40001
1.40001
1.40001
1.40001
1.40001
1.40001
1.40001
1.40001
1.40001
1.40001
1.40001
1.40001
1.40001
1.40001
1.40001
1.40001
1.40001
1.40001
1.40001
1.40001
1.40001
1.40001
1.40001
1.40001
1.40001
1.40001
1.40001
1.40001
1.40001
1.40001
1.40001
1.40001
1.40001
1.40001
1.40001
1.40001
1.40001
1.40001
1.40001
1.40001
1.40001
1.40001
1.40001
1.40001
1.40001
1.40001
1.40001
1.40001
1.40001
1.40001
1.40001
1.40001
1.40001
1.40001
1.40001
1.40001
1.40001
1.40001
1.40001
1.40001
1.40001
1.40001
1.40001
1.40001
1.40001
1.40001
1.40001
1.40001
1.40001
1.40001
1.40001
1.40001
1.40001
1.40001
1.40001
1.40001
1.40001
1.40001
1.40001
1.40001
1.40001
1.40001
1.40001
1.40001
1.40001
1.40001
1.40001
1.40001
1.40001
1.40001
1.40001
1.40001
1.40001
1.40001
1.40001
3.0772
5.29978
5.41747
5.41678
5.42996
5.45152
5.47597
5.49719
5.51199
5.51903
5.52078
5.52224
5.52562
5.53331
5.54649
5.56266
5.57699
5.58579
5.5893
5.59319
5.60134
5.61541
5.63286
5.64837
5.65812
5.66224
5.66423
5.66826
5.67657
5.68921
5.704
5.71803
5.72946
5.73797
5.74443
5.75041
5.75689
5.765
5.77475
5.78482
5.79397
5.80135
5.80707
5.81317
5.82056
5.82905
5.83742
5.84455
5.84954
5.8526
5.85453
5.85642
5.85907
5.86336
5.86911
5.87489
5.87926
5.88221
5.88527
5.89153
5.90148
5.9136
5.92567
5.93565
5.94198
5.94464
5.94446
5.94186
5.93814
5.93564
5.93515
5.93808
5.94553
5.9553
5.96461
5.97113
5.97378
5.97236
5.96828
5.96431
5.96242
5.96317
5.96599
5.96885
5.96964
5.96576
5.95502
5.93719
5.91539
5.89586
5.8844
5.88019
1.40001
1.40001
1.40001
1.40001
1.40001
1.40001
1.40001
1.40001
1.40001
1.40001
1.40001
1.40001
1.40001
1.40001
1.40001
1.40001
1.40001
1.40001
1.40001
1.40001
1.40001
1.40001
1.40001
1.40001
1.40001
1.40001
1.40001
1.40001
1.40001
1.40001
1.40001
1.40001
1.40001
1.40001
1.40001
1.40001
1.40001
1.40001
1.40001
1.40001
1.40001
1.40001
1.40001
1.40001
1.40001
1.40001
1.40001
1.40001
1.40001
1.40001
1.40001
1.40001
1.40001
1.40001
1.40001
1.40001
1.40001
1.40001
1.40001
1.40001
1.40001
1.40001
1.40001
1.40001
1.40001
1.40001
1.40001
1.40001
1.40001
1.40001
1.40001
1.40001
1.40001
1.40001
1.40001
1.40001
1.40001
1.40001
1.40001
1.40001
1.40001
1.40001
1.40001
1.40001
1.40001
1.40001
1.40001
1.40001
1.40001
1.40001
1.40001
1.40001
1.40001
1.40001
1.40001
1.40001
1.40001
1.40001
1.40001
1.40001
2.99665
5.28181
5.41909
5.41567
5.42712
5.44835
5.47366
5.49585
5.51174
5.51948
5.52108
5.52126
5.5233
5.53075
5.54473
5.56226
5.5778
5.58703
5.58973
5.5914
5.5972
5.61034
5.62887
5.64685
5.6592
5.66501
5.66702
5.66935
5.67532
5.68628
5.70074
5.71584
5.72894
5.73858
5.74524
5.75039
5.75559
5.76273
5.77196
5.78189
5.79148
5.79983
5.80652
5.81307
5.82019
5.8278
5.83496
5.84111
5.84607
5.85045
5.8542
5.85711
5.8594
5.86214
5.86596
5.87068
5.87506
5.87904
5.88387
5.8915
5.90188
5.91378
5.92544
5.93491
5.9406
5.94262
5.94191
5.93919
5.93591
5.93393
5.93351
5.936
5.94285
5.95226
5.96187
5.96921
5.97252
5.97124
5.96689
5.96254
5.96072
5.96194
5.96521
5.96817
5.96848
5.96381
5.95234
5.93414
5.91252
5.89345
5.88248
5.87826
1.40001
1.40001
1.40001
1.40001
1.40001
1.40001
1.40001
1.40001
1.40001
1.40001
1.40001
1.40001
1.40001
1.40001
1.40001
1.40001
1.40001
1.40001
1.40001
1.40001
1.40001
1.40001
1.40001
1.40001
1.40001
1.40001
1.40001
1.40001
1.40001
1.40001
1.40001
1.40001
1.40001
1.40001
1.40001
1.40001
1.40001
1.40001
1.40001
1.40001
1.40001
1.40001
1.40001
1.40001
1.40001
1.40001
1.40001
1.40001
1.40001
1.40001
1.40001
1.40001
1.40001
1.40001
1.40001
1.40001
1.40001
1.40001
1.40001
1.40001
1.40001
1.40001
1.40001
1.40001
1.40001
1.40001
1.40001
1.40001
1.40001
1.40001
1.40001
1.40001
1.40001
1.40001
1.40001
1.40001
1.40001
1.40001
1.40001
1.40001
1.40001
1.40001
1.40001
1.40001
1.40001
1.40001
1.40001
1.40001
1.40001
1.40001
1.40001
1.40001
1.40001
1.40001
1.40001
1.40001
1.40001
1.40001
1.40001
1.40001
2.90671
5.25727
5.42151
5.41678
5.42642
5.44621
5.47112
5.49332
5.50999
5.51881
5.52109
5.52091
5.52225
5.52933
5.54335
5.56102
5.5769
5.58684
5.58972
5.59063
5.5952
5.60763
5.626
5.64468
5.65857
5.6659
5.66839
5.67001
5.67483
5.68477
5.69869
5.71396
5.72768
5.73781
5.74451
5.74935
5.75429
5.76129
5.77033
5.77988
5.78918
5.79775
5.80502
5.81184
5.81874
5.82581
5.83231
5.83812
5.84346
5.84916
5.85398
5.85681
5.85818
5.85914
5.86147
5.86597
5.87139
5.87734
5.88394
5.89194
5.90138
5.91242
5.9238
5.93353
5.93951
5.9415
5.94019
5.93652
5.93273
5.93094
5.93105
5.93402
5.94084
5.95
5.95942
5.96688
5.97055
5.96972
5.96562
5.96116
5.95919
5.96043
5.96375
5.96669
5.96676
5.96171
5.94975
5.9312
5.90957
5.89076
5.88019
5.87597
1.40001
1.40001
1.40001
1.40001
1.40001
1.40001
1.40001
1.40001
1.40001
1.40001
1.40001
1.40001
1.40001
1.40001
1.40001
1.40001
1.40001
1.40001
1.40001
1.40001
1.40001
1.40001
1.40001
1.40001
1.40001
1.40001
1.40001
1.40001
1.40001
1.40001
1.40001
1.40001
1.40001
1.40001
1.40001
1.40001
1.40001
1.40001
1.40001
1.40001
1.40001
1.40001
1.40001
1.40001
1.40001
1.40001
1.40001
1.40001
1.40001
1.40001
1.40001
1.40001
1.40001
1.40001
1.40001
1.40001
1.40001
1.40001
1.40001
1.40001
1.40001
1.40001
1.40001
1.40001
1.40001
1.40001
1.40001
1.40001
1.40001
1.40001
1.40001
1.40001
1.40001
1.40001
1.40001
1.40001
1.40001
1.40001
1.40001
1.40001
1.40001
1.40001
1.40001
1.40001
1.40001
1.40001
1.40001
1.40001
1.40001
1.40001
1.40001
1.40001
1.40001
1.40001
1.40001
1.40001
1.40001
1.40001
1.40001
1.40001
2.80839
5.2269
5.42381
5.41928
5.42751
5.44528
5.46867
5.4902
5.50717
5.51711
5.52065
5.52097
5.52232
5.52898
5.54241
5.55905
5.57447
5.58525
5.58943
5.59124
5.59615
5.60807
5.62516
5.64253
5.65607
5.66406
5.66755
5.66996
5.67525
5.68505
5.69829
5.71263
5.7255
5.73527
5.74211
5.7476
5.75348
5.76099
5.77002
5.77906
5.78754
5.7955
5.80256
5.80928
5.81603
5.82287
5.82926
5.83531
5.84142
5.84823
5.85357
5.85599
5.85593
5.85518
5.85639
5.86109
5.86832
5.8767
5.88491
5.89281
5.90061
5.9099
5.92077
5.93131
5.93841
5.94094
5.93913
5.93414
5.92908
5.92683
5.92772
5.932
5.93936
5.94847
5.95735
5.96426
5.96792
5.96769
5.96425
5.96003
5.95779
5.95864
5.96162
5.9644
5.96452
5.95949
5.94732
5.92842
5.90657
5.88783
5.8776
5.87352
1.40001
1.40001
1.40001
1.40001
1.40001
1.40001
1.40001
1.40001
1.40001
1.40001
1.40001
1.40001
1.40001
1.40001
1.40001
1.40001
1.40001
1.40001
1.40001
1.40001
1.40001
1.40001
1.40001
1.40001
1.40001
1.40001
1.40001
1.40001
1.40001
1.40001
1.40001
1.40001
1.40001
1.40001
1.40001
1.40001
1.40001
1.40001
1.40001
1.40001
1.40001
1.40001
1.40001
1.40001
1.40001
1.40001
1.40001
1.40001
1.40001
1.40001
1.40001
1.40001
1.40001
1.40001
1.40001
1.40001
1.40001
1.40001
1.40001
1.40001
1.40001
1.40001
1.40001
1.40001
1.40001
1.40001
1.40001
1.40001
1.40001
1.40001
1.40001
1.40001
1.40001
1.40001
1.40001
1.40001
1.40001
1.40001
1.40001
1.40001
1.40001
1.40001
1.40001
1.40001
1.40001
1.40001
1.40001
1.40001
1.40001
1.40001
1.40001
1.40001
1.40001
1.40001
1.40001
1.40001
1.40001
1.40001
1.40001
1.40001
2.70197
5.19141
5.42571
5.42237
5.4296
5.44533
5.46684
5.48725
5.50419
5.51495
5.51967
5.52091
5.52278
5.52905
5.54154
5.55672
5.57132
5.58277
5.58894
5.59274
5.59919
5.61086
5.62623
5.64135
5.65308
5.66036
5.6646
5.66901
5.6763
5.68689
5.69946
5.71206
5.72283
5.73133
5.73846
5.74551
5.75319
5.76177
5.77082
5.77894
5.78596
5.79275
5.79932
5.80587
5.81262
5.81951
5.82617
5.83274
5.83963
5.84711
5.85248
5.85439
5.8531
5.85104
5.85155
5.85649
5.86546
5.87612
5.88578
5.89356
5.8997
5.90693
5.91694
5.92819
5.93686
5.94037
5.93833
5.93228
5.92553
5.92223
5.92379
5.92953
5.93802
5.94733
5.95556
5.96159
5.96496
5.96524
5.96263
5.95895
5.95647
5.95664
5.95895
5.96146
5.96178
5.957
5.94487
5.92568
5.90347
5.88466
5.87473
5.87092
1.40001
1.40001
1.40001
1.40001
1.40001
1.40001
1.40001
1.40001
1.40001
1.40001
1.40001
1.40001
1.40001
1.40001
1.40001
1.40001
1.40001
1.40001
1.40001
1.40001
1.40001
1.40001
1.40001
1.40001
1.40001
1.40001
1.40001
1.40001
1.40001
1.40001
1.40001
1.40001
1.40001
1.40001
1.40001
1.40001
1.40001
1.40001
1.40001
1.40001
1.40001
1.40001
1.40001
1.40001
1.40001
1.40001
1.40001
1.40001
1.40001
1.40001
1.40001
1.40001
1.40001
1.40001
1.40001
1.40001
1.40001
1.40001
1.40001
1.40001
1.40001
1.40001
1.40001
1.40001
1.40001
1.40001
1.40001
1.40001
1.40001
1.40001
1.40001
1.40001
1.40001
1.40001
1.40001
1.40001
1.40001
1.40001
1.40001
1.40001
1.40001
1.40001
1.40001
1.40001
1.40001
1.40001
1.40001
1.40001
1.40001
1.40001
1.40001
1.40001
1.40001
1.40001
1.40001
1.40001
1.40001
1.40001
1.40001
1.40001
2.58946
5.14918
5.42663
5.42552
5.43218
5.44579
5.46538
5.48453
5.50108
5.51245
5.51831
5.52054
5.52293
5.52901
5.54086
5.55498
5.56873
5.5804
5.58857
5.59476
5.60308
5.61482
5.6284
5.64089
5.65003
5.65581
5.66045
5.66707
5.6769
5.68884
5.70095
5.71153
5.7198
5.72682
5.73447
5.74339
5.753
5.76274
5.77183
5.77896
5.78438
5.78965
5.7954
5.80175
5.80878
5.81619
5.82348
5.8306
5.83783
5.84518
5.85016
5.85174
5.84997
5.84754
5.84794
5.85292
5.86262
5.87465
5.8856
5.89361
5.89875
5.90444
5.91323
5.92451
5.93438
5.93904
5.93719
5.93064
5.92249
5.91799
5.91966
5.92654
5.93634
5.94612
5.95392
5.95914
5.96198
5.96246
5.96066
5.95761
5.95498
5.95442
5.95594
5.9581
5.95859
5.95418
5.94227
5.92288
5.90032
5.8814
5.87174
5.8683
1.40001
1.40001
1.40001
1.40001
1.40001
1.40001
1.40001
1.40001
1.40001
1.40001
1.40001
1.40001
1.40001
1.40001
1.40001
1.40001
1.40001
1.40001
1.40001
1.40001
1.40001
1.40001
1.40001
1.40001
1.40001
1.40001
1.40001
1.40001
1.40001
1.40001
1.40001
1.40001
1.40001
1.40001
1.40001
1.40001
1.40001
1.40001
1.40001
1.40001
1.40001
1.40001
1.40001
1.40001
1.40001
1.40001
1.40001
1.40001
1.40001
1.40001
1.40001
1.40001
1.40001
1.40001
1.40001
1.40001
1.40001
1.40001
1.40001
1.40001
1.40001
1.40001
1.40001
1.40001
1.40001
1.40001
1.40001
1.40001
1.40001
1.40001
1.40001
1.40001
1.40001
1.40001
1.40001
1.40001
1.40001
1.40001
1.40001
1.40001
1.40001
1.40001
1.40001
1.40001
1.40001
1.40001
1.40001
1.40001
1.40001
1.40001
1.40001
1.40001
1.40001
1.40001
1.40001
1.40001
1.40001
1.40001
1.40001
1.40001
2.47187
5.10006
5.42611
5.42696
5.4339
5.44628
5.4643
5.48229
5.49822
5.50972
5.51638
5.51953
5.52246
5.5287
5.54041
5.55415
5.56761
5.57925
5.58831
5.59625
5.60592
5.61767
5.62999
5.64041
5.64752
5.65224
5.65738
5.66576
5.67745
5.6902
5.70175
5.71066
5.7172
5.723
5.73076
5.74113
5.75253
5.76324
5.77231
5.77855
5.78247
5.78616
5.79093
5.79715
5.80473
5.81309
5.82138
5.82902
5.83596
5.84228
5.84648
5.84796
5.84668
5.84505
5.84604
5.85102
5.8602
5.872
5.88348
5.89209
5.89754
5.90266
5.91029
5.92083
5.93095
5.93636
5.93518
5.92878
5.91995
5.91452
5.91584
5.9232
5.93401
5.94444
5.95216
5.95683
5.95909
5.9595
5.9582
5.95571
5.95312
5.95204
5.95284
5.95453
5.95505
5.95096
5.93934
5.91992
5.89715
5.87817
5.86874
5.86568
1.40001
1.40001
1.40001
1.40001
1.40001
1.40001
1.40001
1.40001
1.40001
1.40001
1.40001
1.40001
1.40001
1.40001
1.40001
1.40001
1.40001
1.40001
1.40001
1.40001
1.40001
1.40001
1.40001
1.40001
1.40001
1.40001
1.40001
1.40001
1.40001
1.40001
1.40001
1.40001
1.40001
1.40001
1.40001
1.40001
1.40001
1.40001
1.40001
1.40001
1.40001
1.40001
1.40001
1.40001
1.40001
1.40001
1.40001
1.40001
1.40001
1.40001
1.40001
1.40001
1.40001
1.40001
1.40001
1.40001
1.40001
1.40001
1.40001
1.40001
1.40001
1.40001
1.40001
1.40001
1.40001
1.40001
1.40001
1.40001
1.40001
1.40001
1.40001
1.40001
1.40001
1.40001
1.40001
1.40001
1.40001
1.40001
1.40001
1.40001
1.40001
1.40001
1.40001
1.40001
1.40001
1.40001
1.40001
1.40001
1.40001
1.40001
1.40001
1.40001
1.40001
1.40001
1.40001
1.40001
1.40001
1.40001
1.40001
1.40001
2.35045
5.04366
5.42573
5.42706
5.4347
5.44651
5.46334
5.48055
5.49594
5.50705
5.51375
5.51752
5.52109
5.52811
5.54044
5.55458
5.56831
5.57999
5.58914
5.59737
5.60685
5.61804
5.62962
5.63928
5.64608
5.65091
5.65645
5.66501
5.67678
5.68946
5.70071
5.70913
5.71543
5.72062
5.72796
5.7387
5.75104
5.76256
5.77188
5.77765
5.78048
5.78271
5.7863
5.79219
5.80042
5.81011
5.81977
5.828
5.83417
5.83862
5.84157
5.84304
5.84317
5.84347
5.84561
5.8506
5.85849
5.86861
5.87927
5.8886
5.8957
5.90153
5.90864
5.91788
5.92707
5.93242
5.93205
5.92645
5.91781
5.91199
5.91275
5.9198
5.9309
5.94191
5.94995
5.9545
5.95634
5.95645
5.95525
5.9531
5.95077
5.9495
5.94975
5.95091
5.95125
5.9473
5.93595
5.91669
5.89395
5.875
5.86571
5.86293
1.40001
1.40001
1.40001
1.40001
1.40001
1.40001
1.40001
1.40001
1.40001
1.40001
1.40001
1.40001
1.40001
1.40001
1.40001
1.40001
1.40001
1.40001
1.40001
1.40001
1.40001
1.40001
1.40001
1.40001
1.40001
1.40001
1.40001
1.40001
1.40001
1.40001
1.40001
1.40001
1.40001
1.40001
1.40001
1.40001
1.40001
1.40001
1.40001
1.40001
1.40001
1.40001
1.40001
1.40001
1.40001
1.40001
1.40001
1.40001
1.40001
1.40001
1.40001
1.40001
1.40001
1.40001
1.40001
1.40001
1.40001
1.40001
1.40001
1.40001
1.40001
1.40001
1.40001
1.40001
1.40001
1.40001
1.40001
1.40001
1.40001
1.40001
1.40001
1.40001
1.40001
1.40001
1.40001
1.40001
1.40001
1.40001
1.40001
1.40001
1.40001
1.40001
1.40001
1.40001
1.40001
1.40001
1.40001
1.40001
1.40001
1.40001
1.40001
1.40001
1.40001
1.40001
1.40001
1.40001
1.40001
1.40001
1.40001
1.40001
2.22727
4.97842
5.42548
5.42655
5.43518
5.44663
5.46257
5.4792
5.49413
5.50481
5.51114
5.51503
5.51899
5.52694
5.54029
5.55558
5.57026
5.58225
5.59119
5.59851
5.60638
5.61602
5.62711
5.63748
5.6458
5.65198
5.65768
5.66473
5.67474
5.68649
5.69772
5.70709
5.71442
5.71988
5.7264
5.73636
5.74843
5.7603
5.77019
5.77632
5.77876
5.77969
5.78178
5.78686
5.79555
5.80679
5.81814
5.82713
5.83256
5.83501
5.8361
5.83729
5.83938
5.84243
5.84646
5.85148
5.85764
5.86503
5.87365
5.88331
5.89269
5.90056
5.90793
5.91574
5.92309
5.9275
5.92757
5.92307
5.9155
5.91004
5.91038
5.91663
5.92723
5.93847
5.94707
5.95191
5.95359
5.95336
5.95194
5.94994
5.94797
5.94682
5.9468
5.94743
5.94735
5.94332
5.93217
5.91324
5.89077
5.87195
5.86267
5.85993
1.40001
1.40001
1.40001
1.40001
1.40001
1.40001
1.40001
1.40001
1.40001
1.40001
1.40001
1.40001
1.40001
1.40001
1.40001
1.40001
1.40001
1.40001
1.40001
1.40001
1.40001
1.40001
1.40001
1.40001
1.40001
1.40001
1.40001
1.40001
1.40001
1.40001
1.40001
1.40001
1.40001
1.40001
1.40001
1.40001
1.40001
1.40001
1.40001
1.40001
1.40001
1.40001
1.40001
1.40001
1.40001
1.40001
1.40001
1.40001
1.40001
1.40001
1.40001
1.40001
1.40001
1.40001
1.40001
1.40001
1.40001
1.40001
1.40001
1.40001
1.40001
1.40001
1.40001
1.40001
1.40001
1.40001
1.40001
1.40001
1.40001
1.40001
1.40001
1.40001
1.40001
1.40001
1.40001
1.40001
1.40001
1.40001
1.40001
1.40001
1.40001
1.40001
1.40001
1.40001
1.40001
1.40001
1.40001
1.40001
1.40001
1.40001
1.40001
1.40001
1.40001
1.40001
1.40001
1.40001
1.40001
1.40001
1.40001
1.40001
2.10387
4.90346
5.42563
5.42557
5.43566
5.44685
5.46201
5.47785
5.49219
5.50258
5.50882
5.51292
5.51731
5.52596
5.54023
5.55666
5.57257
5.58523
5.59382
5.59936
5.6045
5.61174
5.62275
5.63509
5.64614
5.6544
5.65995
5.66457
5.67171
5.6819
5.69352
5.70494
5.71399
5.71987
5.72535
5.73374
5.74491
5.75688
5.76764
5.77479
5.77744
5.7774
5.77784
5.78143
5.78996
5.80258
5.81587
5.82599
5.83102
5.83183
5.83112
5.83167
5.83517
5.84101
5.84718
5.8526
5.85716
5.8617
5.86778
5.87706
5.88844
5.89909
5.90746
5.91412
5.91925
5.92222
5.92208
5.91851
5.91267
5.9084
5.90869
5.91398
5.9234
5.93431
5.94342
5.94888
5.95078
5.95025
5.94837
5.94629
5.94465
5.94383
5.94377
5.94397
5.94326
5.93892
5.92793
5.90954
5.88758
5.86893
5.85948
5.85651
1.40001
1.40001
1.40001
1.40001
1.40001
1.40001
1.40001
1.40001
1.40001
1.40001
1.40001
1.40001
1.40001
1.40001
1.40001
1.40001
1.40001
1.40001
1.40001
1.40001
1.40001
1.40001
1.40001
1.40001
1.40001
1.40001
1.40001
1.40001
1.40001
1.40001
1.40001
1.40001
1.40001
1.40001
1.40001
1.40001
1.40001
1.40001
1.40001
1.40001
1.40001
1.40001
1.40001
1.40001
1.40001
1.40001
1.40001
1.40001
1.40001
1.40001
1.40001
1.40001
1.40001
1.40001
1.40001
1.40001
1.40001
1.40001
1.40001
1.40001
1.40001
1.40001
1.40001
1.40001
1.40001
1.40001
1.40001
1.40001
1.40001
1.40001
1.40001
1.40001
1.40001
1.40001
1.40001
1.40001
1.40001
1.40001
1.40001
1.40001
1.40001
1.40001
1.40001
1.40001
1.40001
1.40001
1.40001
1.40001
1.40001
1.40001
1.40001
1.40001
1.40001
1.40001
1.40001
1.40001
1.40001
1.40001
1.40001
1.40001
1.97961
4.81745
5.426
5.42495
5.43632
5.44691
5.46119
5.47616
5.49023
5.501
5.50791
5.51233
5.51696
5.52548
5.53967
5.55684
5.5737
5.58698
5.59536
5.59966
5.60252
5.60754
5.61844
5.6329
5.6468
5.657
5.66211
5.66432
5.6684
5.67676
5.68888
5.70233
5.7131
5.71955
5.72418
5.73077
5.74063
5.75269
5.76474
5.77327
5.77645
5.77573
5.77461
5.77628
5.78381
5.79723
5.81232
5.82395
5.8292
5.82916
5.82734
5.82712
5.83104
5.83889
5.84717
5.8531
5.85649
5.8588
5.8626
5.87102
5.8835
5.89657
5.90642
5.9126
5.91572
5.91683
5.91602
5.913
5.9092
5.90676
5.90735
5.91175
5.91956
5.92952
5.93883
5.94507
5.94748
5.9469
5.94458
5.94229
5.94094
5.94055
5.94063
5.94044
5.93904
5.93433
5.92354
5.90583
5.88449
5.86597
5.85615
5.85268
1.40001
1.40001
1.40001
1.40001
1.40001
1.40001
1.40001
1.40001
1.40001
1.40001
1.40001
1.40001
1.40001
1.40001
1.40001
1.40001
1.40001
1.40001
1.40001
1.40001
1.40001
1.40001
1.40001
1.40001
1.40001
1.40001
1.40001
1.40001
1.40001
1.40001
1.40001
1.40001
1.40001
1.40001
1.40001
1.40001
1.40001
1.40001
1.40001
1.40001