/*--------------------------------*- C++ -*----------------------------------*\
  =========                 |
  \\      /  F ield         | OpenFOAM: The Open Source CFD Toolbox
   \\    /   O peration     | Website:  https://openfoam.org
    \\  /    A nd           | Version:  7
     \\/     M anipulation  |
\*---------------------------------------------------------------------------*/
FoamFile
{
    version     2.0;
    format      ascii;
    class       volScalarField;
    location    "3.9";
    object      p;
}
// * * * * * * * * * * * * * * * * * * * * * * * * * * * * * * * * * * * * * //

dimensions      [1 -1 -2 0 0 0 0];

internalField   nonuniform List<scalar> 
4032
(
1
1
1
1
1
1
1
1
1
1
1
1.29207
7.49505
10.6125
10.7478
10.9541
11.1391
11.3156
11.4772
11.6209
11.7457
11.8439
11.9163
11.9671
1
1
1
1
1
1
1
1
1
1
1
1.2533
7.3282
10.5793
10.7325
10.9319
11.1131
11.2854
11.443
11.5822
11.7013
11.793
11.8575
11.9035
1
1
1
1
1
1
1
1
1
1
1
1.14849
7.01568
10.5444
10.6869
10.8844
11.0651
11.2347
11.3884
11.5222
11.636
11.7237
11.7839
11.8291
1
1
1
1
1
1
1
1
1
1
1
1.01124
6.50461
10.4773
10.6273
10.8128
10.9852
11.1441
11.2896
11.4183
11.5301
11.6146
11.6674
11.7035
1
1
1
1
1
1
1
1
1
1
1
1.00011
5.82009
10.3081
10.5075
10.6847
10.8564
11.0092
11.1457
11.2596
11.3512
11.4204
11.4626
11.5129
1
1
1
1
1
1
1
1
1
1
1
1
4.97133
10.068
10.3966
10.5584
10.7198
10.8551
10.9722
11.0704
11.1507
11.2127
11.23
11.1908
1
1
1
1
1
1
1
1
1
1
1
1
4.00903
9.69564
10.2837
10.434
10.5756
10.6816
10.761
10.8178
10.838
10.8031
10.7388
10.6982
1
1
1
1
1
1
1
1
1
1
1
1
2.96612
9.11823
10.1955
10.3271
10.4384
10.5098
10.5423
10.5436
10.4959
10.4173
10.2949
10.292
1
1
1
1
1
1
1
1
1
1
1
1
1.90082
8.24936
10.1639
10.2003
10.2928
10.3304
10.3135
10.2493
10.1021
9.83331
9.06219
7.20049
1
1
1
1
1
1
1
1
1
1
1
1
1.10331
7.03936
10.1838
10.0843
10.0867
10.0793
10.024
9.89625
9.6555
9.18283
8.39043
6.32608
1
1
1
1
1
1
1
1
1
1
1
1
1.00095
5.39255
9.58255
9.75113
9.81292
9.77847
9.69851
9.52185
9.22338
8.66046
7.8375
5.90206
1
1
1
1
1
1
1
1
1
1
1
1
0.999987
3.51767
8.94785
9.61115
9.64436
9.57738
9.45298
9.21869
8.85577
8.2802
7.37564
5.8179
1
1
1
1
1
1
1
1
1
1
1
1
0.999997
1.83888
7.96612
9.57642
9.46121
9.34216
9.1813
8.91489
8.51583
7.95848
7.05097
5.83471
1
1
1
1
1
1
1
1
1
1
1
1
0.999999
1.07473
6.19226
9.18952
9.17867
9.0826
8.91903
8.64973
8.2589
7.68984
6.86234
5.91612
1
1
1
1
1
1
1
1
1
1
1
1
1
1.00023
3.69964
8.55576
9.05273
8.94553
8.75444
8.44459
8.05259
7.47408
6.75549
5.98134
1
1
1
1
1
1
1
1
1
1
1
1
1
0.999997
1.54763
7.56016
9.08989
8.80011
8.55106
8.23052
7.82389
7.31052
6.70357
6.04699
1
1
1
1
1
1
1
1
1
1
1
1
1
0.999999
1.02674
5.49137
8.61802
8.45102
8.28197
8.011
7.64538
7.19361
6.66578
6.0891
1
1
1
1
1
1
1
1
1
1
1
1
1
1
0.999942
2.6955
7.86857
8.35602
8.18906
7.91419
7.55711
7.12522
6.63917
6.12043
1
1
1
1
1
1
1
1
1
1
1
1
1
1
0.999983
1.20557
5.98357
8.28048
8.08237
7.80426
7.45674
7.05438
6.61451
6.14525
1
1
1
1
1
1
1
1
1
1
1
1
1
1
0.999997
1.0032
3.09282
7.53748
7.9592
7.68728
7.36676
6.99784
6.59809
6.17267
1
1
1
1
1
1
1
1
1
1
1
1
1
1
1
1
1.30246
5.83646
7.92024
7.62562
7.33181
6.97873
6.59773
6.19911
1
1
1
1
1
1
1
1
1
1
1
1
1
1
1
1
1.00734
2.87477
7.11701
7.55712
7.26073
6.92646
6.57121
6.20752
1
1
1
1
1
1
1
1
1
1
1
1
1
1
1
1
1.00002
1.24884
5.28264
7.56322
7.23114
6.91254
6.57921
6.24241
1
1
1
1
1
1
1
1
1
1
1
1
1
1
1
1
1
1.00533
2.34436
6.46945
7.17994
6.88805
6.58406
6.26459
1
1
1
1
1
1
1
1
1
1
1
1
1
1
1
1
1
1.00002
1.12964
4.17968
7.06619
6.91881
6.63251
6.32086
1
1
1
1
1
1
1
1
1
1
1
1
1
1
1
1
1
1
1.00194
1.71598
5.62619
6.91847
6.63866
6.32735
1
1
1
1
1
1
1
1
1
1
1
1
1
1
1
1
1
1
1.00001
1.03994
2.86512
6.21662
6.64855
6.37028
1
1
1
1
1
1
1
1
1
1
1
1
1
1
1
1
1
1
1
1.00043
1.24461
4.19889
6.47741
6.4321
1
1
1
1
1
1
1
1
1
1
1
1
1
1
1
1
1
1
1
1
1.00634
1.77279
5.11861
6.38398
1
1
1
1
1
1
1
1
1
1
1
1
1
1
1
1
1
1
1
1
1.00004
1.04757
2.52917
5.61492
1
1
1
1
1
1
1
1
1
1
1
1
1
1
1
1
1
1
1
1
1
1.00062
1.17378
3.38232
1
1
1
1
1
1
1
1
1
1
1
1
1
1
1
1
1
1
1
1
1
1
1.00414
1.43104
1
1
1
1
1
1
1
1
1
1
1
1
1
1
1
1
1
1
1
1
1
1
1.00002
1.01911
1
1
1
1
1
1
1
1
1
1
1
1
1
1
1
1
1
1
1
1
1
1
1
1.00022
1
1
1
1
1
1
1
1
1
1
1
1
1
1
1
1
1
1
1
1
1
1
1
1
1
1
1
1
1
1
1
1
1
1
1
1
1
1
1
1
1
1
1
1
1
1
1
1
1
1
1
1
1
1
1
1
1
1
1
1
1
1
1
1
1
1
1
1
1
1
1
1
1
1
1
1
1
1
1
1
1
1
1
1
1
1
1
1
1
1
1
1
1
1
1
1
1
1
1
1
1
1
1
1
1
1
1
1
1
1
1
1
1
1
1
1
1
1
1
1
1
1
1
1
1
1
1
1
1
1
1
1
1
1
1
1
1
1
1
1
1
1
1
1
1.62457
0.403935
0.130225
0.140658
0.21638
0.302794
0.365745
0.476373
0.626948
0.751721
0.902504
1.04283
1.09706
1.13043
1.16893
1.20184
1.22184
1.25873
1.30833
1.32539
1.31546
1.28017
1.26433
1.26341
1.29133
1.34863
1.3657
1.97207
4.94594
5.73903
5.83724
5.90123
5.91305
5.90294
5.88412
5.86413
5.82507
5.7587
5.68384
5.61936
5.57175
5.53505
5.48431
5.39338
5.28479
5.19228
5.13001
5.0991
5.07423
5.00576
4.8963
4.78334
4.68587
4.61413
4.56971
4.53114
4.46269
4.37272
4.28575
4.21218
4.15867
4.11631
4.05624
3.98329
3.90739
3.82734
3.75516
3.69367
3.64531
3.60888
3.5692
3.51524
3.45299
3.37923
3.29894
3.23001
3.17783
3.13502
3.10112
3.0712
3.03069
2.9759
2.89856
2.82583
2.77648
2.73896
2.70482
2.67123
2.63569
2.59268
2.53421
2.47777
2.44496
2.41968
2.40897
2.37109
2.74366
1.49472
0.836886
0.600023
0.592141
0.564465
0.531369
0.507888
0.50818
0.535514
0.615599
0.728093
0.843902
0.942363
1.01177
1.06558
1.12304
1.18057
1.22688
1.25542
1.27609
1.28793
1.29442
1.28104
1.28382
1.3095
1.32218
1.79241
4.75581
5.93544
6.00138
5.97071
5.91384
5.87709
5.85572
5.84902
5.83016
5.76268
5.65755
5.55505
5.48255
5.45383
5.45777
5.43863
5.34176
5.21298
5.09567
5.00027
4.9485
4.92759
4.89351
4.81705
4.71562
4.61734
4.5304
4.46209
4.41912
4.37238
4.30818
4.23457
4.15638
4.07968
4.00999
3.95434
3.90526
3.84972
3.78537
3.71458
3.6447
3.58401
3.52758
3.48161
3.4354
3.38236
3.32711
3.26251
3.19444
3.13314
3.0845
3.04094
3.00133
2.95781
2.90434
2.84804
2.78963
2.73615
2.69598
2.66345
2.63111
2.59393
2.54824
2.49542
2.44924
2.4181
2.39788
2.35395
3.57743
2.41904
1.71903
1.21659
0.940727
0.837215
0.763689
0.675305
0.580338
0.552743
0.578919
0.645593
0.719882
0.808061
0.894562
0.942527
1.00145
1.08937
1.14778
1.18917
1.23231
1.28193
1.32986
1.33734
1.3352
1.31967
1.29812
1.44002
4.46068
6.27815
6.14857
6.03274
5.94677
5.88248
5.8278
5.81408
5.81371
5.80628
5.7354
5.62133
5.50479
5.41714
5.38412
5.39959
5.39636
5.32434
5.21
5.05756
4.92643
4.84241
4.80861
4.80056
4.76135
4.68151
4.57902
4.46616
4.38315
4.32724
4.29856
4.26412
4.1996
4.11501
4.0061
3.91452
3.85845
3.8225
3.79685
3.75253
3.69153
3.6082
3.50722
3.42542
3.37458
3.34354
3.32354
3.28814
3.24185
3.176
3.08761
3.00469
2.94582
2.9051
2.87855
2.84783
2.81057
2.76264
2.70173
2.645
2.60713
2.5775
2.54856
2.51591
2.47112
2.4179
2.38001
2.3297
4.23204
3.13181
2.4452
1.92659
1.4772
1.19537
1.07208
0.996935
0.910227
0.809747
0.72078
0.687421
0.693044
0.71669
0.761196
0.797923
0.845661
0.9336
1.01022
1.06227
1.11004
1.16549
1.24777
1.30274
1.31449
1.31209
1.32705
1.49032
3.68619
6.54275
6.41936
6.12504
6.02031
5.93832
5.85422
5.79023
5.73673
5.72037
5.71074
5.63869
5.54445
5.42363
5.33777
5.29682
5.28663
5.26183
5.1974
5.10722
4.97848
4.8583
4.78543
4.73878
4.70706
4.6521
4.58261
4.50188
4.39845
4.31677
4.26553
4.22089
4.17075
4.11238
4.04109
3.94579
3.85387
3.79972
3.75981
3.72291
3.67656
3.61848
3.54607
3.46155
3.38262
3.33066
3.29454
3.2631
3.22707
3.17735
3.10439
3.01825
2.94786
2.89952
2.86356
2.83361
2.80506
2.77254
2.72322
2.654
2.60069
2.57183
2.54708
2.52107
2.48946
2.43904
2.37669
2.3019
4.66216
3.71586
2.99235
2.46582
2.06773
1.71986
1.37081
1.22756
1.16931
1.08834
0.977681
0.844151
0.757715
0.739317
0.749986
0.783826
0.799871
0.820196
0.842942
0.876579
0.929131
1.01072
1.12833
1.22124
1.25534
1.29699
1.50421
1.98607
2.98941
5.66012
6.5016
6.22813
6.09885
5.97826
5.88142
5.78384
5.71941
5.66936
5.66319
5.64132
5.58084
5.49247
5.35929
5.26092
5.20227
5.15813
5.12641
5.07605
5.00482
4.90226
4.78979
4.71229
4.65009
4.60087
4.55127
4.49823
4.433
4.34439
4.25303
4.1867
4.13311
4.08457
4.03626
3.97778
3.89879
3.80961
3.73825
3.68097
3.62717
3.57627
3.52941
3.48373
3.42874
3.35899
3.29038
3.23335
3.17903
3.122
3.06416
3.01312
2.9678
2.92009
2.87233
2.83215
2.79676
2.76021
2.71507
2.65817
2.6069
2.57412
2.54836
2.52195
2.49169
2.44444
2.37531
2.28524
4.9776
4.16626
3.505
2.89781
2.46457
2.16124
1.8433
1.54211
1.36512
1.30391
1.23441
1.13191
1.00293
0.882231
0.84334
0.851644
0.845786
0.828207
0.828422
0.817196
0.819327
0.851325
0.922608
1.01638
1.1371
1.33866
1.94328
2.64561
2.9349
3.86592
5.53568
5.98779
6.2106
6.13692
5.97497
5.7865
5.62859
5.56793
5.55189
5.59171
5.5737
5.51106
5.39507
5.23943
5.15316
5.10086
5.07392
5.05166
4.99447
4.91545
4.80107
4.68989
4.62501
4.57796
4.5415
4.49464
4.4377
4.35143
4.23835
4.15826
4.11224
4.07365
4.03354
3.98563
3.91383
3.80527
3.70251
3.63684
3.59116
3.555
3.52521
3.49394
3.45216
3.38363
3.28533
3.20022
3.13794
3.08764
3.04882
3.01723
2.98362
2.94018
2.88537
2.83219
2.78776
2.74639
2.70283
2.65485
2.60615
2.56767
2.53999
2.51281
2.48104
2.43549
2.37363
2.28477
5.19587
4.48211
3.88001
3.30818
2.83026
2.47883
2.20026
1.93344
1.68873
1.49261
1.39621
1.33422
1.25136
1.14418
1.00382
0.932211
0.906239
0.863819
0.850629
0.85919
0.853266
0.838103
0.838161
0.862862
1.00404
1.55347
2.18586
2.68911
2.80077
2.88205
3.71436
5.13768
5.92832
6.13848
6.03006
5.84078
5.60703
5.51392
5.48479
5.52853
5.54118
5.48522
5.40462
5.26415
5.13897
5.07944
5.04421
5.02334
4.97235
4.90796
4.82536
4.72243
4.64198
4.58968
4.53954
4.47909
4.41443
4.33779
4.24556
4.16292
4.11114
4.06936
4.01947
3.96026
3.88375
3.78801
3.68883
3.62027
3.57982
3.54853
3.52344
3.48978
3.44579
3.37142
3.25785
3.15895
3.10519
3.07178
3.04458
3.01838
2.99008
2.95351
2.89513
2.82647
2.7754
2.73658
2.69906
2.65639
2.60426
2.55199
2.51506
2.48514
2.45358
2.41608
2.37783
2.30973
5.36722
4.72963
4.1684
3.64581
3.19385
2.80687
2.46566
2.22712
2.03248
1.82363
1.59474
1.4603
1.41816
1.3603
1.25962
1.11399
1.0402
0.993164
0.948167
0.936045
0.913593
0.882458
0.886011
0.977785
1.39731
1.93629
2.17999
2.35817
2.42353
2.46189
2.60173
3.41513
4.79125
5.77174
5.97589
5.87239
5.6626
5.52354
5.45506
5.42943
5.44107
5.43019
5.37624
5.28771
5.15944
5.06445
5.00739
4.96192
4.9371
4.89345
4.83383
4.7553
4.65114
4.55399
4.48326
4.4273
4.37324
4.32016
4.25894
4.17895
4.08919
4.01555
3.95629
3.89845
3.84067
3.78219
3.7194
3.65097
3.59426
3.55769
3.51778
3.46788
3.40632
3.33117
3.24093
3.15834
3.10695
3.07681
3.0565
3.03516
3.00501
2.95988
2.88918
2.81253
2.76118
2.72634
2.69263
2.65207
2.59695
2.53254
2.48321
2.44866
2.41867
2.39081
2.37099
2.32709
5.48923
4.92606
4.40383
3.9007
3.48468
3.12704
2.7706
2.45202
2.25777
2.08717
1.89455
1.71391
1.54093
1.46027
1.4172
1.33546
1.21915
1.13535
1.07808
1.02063
0.981669
0.971707
1.06756
1.45644
1.99377
2.18004
2.18653
2.19922
2.23183
2.2677
2.27314
2.3443
2.89083
4.15031
5.30993
5.72231
5.70398
5.60511
5.49321
5.40327
5.35706
5.31914
5.2993
5.25477
5.17928
5.0624
4.97299
4.92087
4.88546
4.85683
4.80521
4.73767
4.63361
4.50877
4.43357
4.38304
4.33931
4.29748
4.24412
4.16785
4.05751
3.96088
3.90489
3.85997
3.82014
3.78383
3.74058
3.68282
3.60337
3.52034
3.45428
3.39594
3.33798
3.27968
3.23384
3.19422
3.14863
3.09706
3.04779
3.00217
2.95677
2.91066
2.86124
2.80682
2.75798
2.71907
2.68505
2.64711
2.59324
2.51856
2.453
2.41734
2.3962
2.37962
2.37475
2.33972
5.58753
5.08372
4.5941
4.13064
3.72833
3.36492
3.02769
2.74265
2.49305
2.24957
2.09253
1.96303
1.79407
1.6081
1.51535
1.47635
1.39835
1.2938
1.20769
1.14522
1.14314
1.25691
1.66406
2.22994
2.39143
2.31782
2.28095
2.25827
2.26546
2.28927
2.29171
2.25674
2.22807
2.44202
3.39796
4.64542
5.40001
5.61239
5.58899
5.4423
5.30325
5.24524
5.20953
5.19445
5.14452
5.05941
4.94681
4.88016
4.83737
4.80729
4.75538
4.69154
4.59946
4.47261
4.38806
4.33924
4.30024
4.26282
4.21212
4.14378
4.03554
3.92908
3.8733
3.83138
3.80275
3.77781
3.73577
3.67854
3.59148
3.48588
3.40476
3.34591
3.29567
3.26092
3.23754
3.20878
3.16782
3.10859
3.03579
2.97299
2.92446
2.88
2.83804
2.80113
2.76556
2.72748
2.68326
2.63704
2.58621
2.52676
2.4639
2.41935
2.39851
2.38507
2.37091
2.32524
5.66893
5.20916
4.74309
4.32221
3.94647
3.57955
3.23361
2.97656
2.73318
2.48814
2.26054
2.11828
1.9904
1.83703
1.68279
1.589
1.52162
1.42769
1.33717
1.34224
1.48494
1.9615
2.54786
2.68029
2.61171
2.50549
2.43454
2.414
2.41728
2.39964
2.36094
2.30969
2.23647
2.20055
2.26481
2.80439
3.95971
4.99686
5.42725
5.46011
5.28522
5.18199
5.13065
5.12588
5.09905
5.0357
4.93129
4.83998
4.78902
4.75452
4.70948
4.65155
4.57147
4.44846
4.34752
4.29734
4.25993
4.22519
4.17886
4.12179
4.03366
3.9213
3.85278
3.81309
3.7797
3.73843
3.69265
3.64132
3.56557
3.45721
3.36789
3.3196
3.28646
3.26064
3.23499
3.20206
3.16322
3.10109
3.01453
2.94456
2.89896
2.86358
2.83225
2.79712
2.74915
2.6903
2.64146
2.59898
2.56233
2.53157
2.49803
2.45261
2.40242
2.36492
2.33797
2.28548
5.74169
5.3083
4.87877
4.49258
4.12649
3.76328
3.4517
3.17913
2.92016
2.67973
2.47962
2.30501
2.13242
1.99671
1.87112
1.74624
1.6359
1.54029
1.55971
1.77734
2.24729
2.84387
2.99328
2.93022
2.84376
2.73524
2.62924
2.58795
2.5604
2.524
2.48048
2.43646
2.37378
2.27589
2.21502
2.2277
2.44882
3.24237
4.33621
5.05299
5.13815
5.14822
5.09541
5.08519
5.05345
4.99554
4.9156
4.80723
4.74142
4.70169
4.66043
4.61202
4.55055
4.45402
4.33646
4.26254
4.21882
4.18155
4.13957
4.09369
4.03389
3.9438
3.84701
3.78616
3.74105
3.6968
3.65105
3.59985
3.53261
3.43995
3.35642
3.31632
3.28831
3.25907
3.22443
3.18405
3.13303
3.06577
2.98608
2.92181
2.88344
2.8548
2.82573
2.79025
2.73809
2.66552
2.60765
2.5831
2.56642
2.54626
2.51704
2.47067
2.40188
2.33499
2.29975
2.25379
5.80002
5.38784
4.99239
4.63551
4.27982
3.9268
3.6414
3.36959
3.10684
2.85318
2.67002
2.48965
2.31581
2.13965
2.00911
1.89491
1.78327
1.82152
2.1358
2.65947
3.09705
3.27408
3.21299
3.14439
3.07529
2.97574
2.83482
2.74872
2.708
2.67767
2.63586
2.58162
2.51348
2.42826
2.32779
2.24655
2.23444
2.2853
2.65283
3.5223
4.42191
4.85391
4.98936
5.02777
5.01153
4.94966
4.88781
4.79732
4.71511
4.65613
4.60579
4.5587
4.50889
4.44616
4.35864
4.26188
4.18969
4.13947
4.09811
4.05932
4.01611
3.95403
3.85874
3.75949
3.6947
3.64871
3.60441
3.55652
3.50335
3.442
3.3731
3.31515
3.27625
3.24139
3.20372
3.15927
3.10349
3.03488
2.96281
2.90892
2.87364
2.84247
2.80942
2.77165
2.72215
2.65791
2.60076
2.56266
2.53849
2.51687
2.49511
2.46321
2.40008
2.31966
2.26834
2.22797
5.83861
5.45897
5.09961
4.76044
4.41347
4.09113
3.81186
3.53966
3.26634
3.03988
2.84174
2.6488
2.46994
2.28851
2.15531
2.05525
2.14583
2.60842
3.28234
3.5163
3.52747
3.43127
3.35458
3.33499
3.28962
3.20787
3.07671
2.92943
2.85938
2.81285
2.76326
2.7076
2.65053
2.57809
2.47923
2.37891
2.28841
2.2402
2.24648
2.34624
2.85024
3.69512
4.48784
4.73147
4.88494
4.9166
4.8573
4.79274
4.71942
4.64094
4.55811
4.49113
4.445
4.39975
4.34556
4.27714
4.19246
4.10857
4.05307
4.01462
3.97618
3.9284
3.85625
3.75253
3.6547
3.59774
3.55958
3.52544
3.49151
3.4488
3.38451
3.30251
3.24219
3.20467
3.16984
3.13012
3.08095
3.01847
2.94778
2.89177
2.85598
2.82357
2.78902
2.74996
2.70642
2.65794
2.60209
2.55015
2.51405
2.4866
2.45871
2.42668
2.38726
2.32455
2.26879
2.21685
5.89478
5.5397
5.20172
4.87126
4.5355
4.23915
3.96306
3.68853
3.41864
3.20984
2.99836
2.80863
2.58742
2.44532
2.37155
2.54686
3.066
3.83771
4.12723
3.97585
3.76323
3.60371
3.54758
3.54077
3.50116
3.41914
3.30228
3.13574
3.00838
2.94274
2.884
2.82387
2.76529
2.70561
2.62736
2.5217
2.42184
2.34294
2.27509
2.25271
2.2659
2.42966
3.00616
3.76307
4.39471
4.64276
4.73264
4.77764
4.7115
4.64541
4.54042
4.41925
4.36682
4.33182
4.29543
4.25244
4.18947
4.09989
4.01432
3.96038
3.91896
3.87553
3.82184
3.74577
3.64531
3.5629
3.52429
3.4977
3.46962
3.43497
3.38067
3.29279
3.20624
3.16019
3.12836
3.0966
3.06161
3.01678
2.95139
2.87089
2.81452
2.78364
2.75573
2.72725
2.69793
2.66153
2.60907
2.54186
2.48632
2.45096
2.41966
2.38757
2.35585
2.32397
2.28736
2.22097
5.93231
5.60388
5.28399
4.95874
4.64323
4.3666
4.09525
3.81329
3.57272
3.35104
3.14219
2.92444
2.74148
2.73349
3.04688
3.67435
4.25927
4.47979
4.38703
4.18987
3.98641
3.83755
3.77758
3.74507
3.68579
3.5939
3.48103
3.32664
3.17186
3.08639
3.02213
2.95524
2.88365
2.81246
2.73568
2.63763
2.5327
2.45413
2.38878
2.32084
2.26467
2.23704
2.26594
2.47649
3.04625
3.75651
4.2925
4.52068
4.61343
4.62268
4.53985
4.39131
4.29832
4.25873
4.23179
4.20033
4.15417
4.08109
3.98233
3.90647
3.85883
3.81716
3.77312
3.72009
3.64829
3.56309
3.49941
3.46117
3.42803
3.39173
3.3437
3.2664
3.17191
3.12271
3.09695
3.07253
3.04524
3.00935
2.94791
2.84812
2.77256
2.74341
2.72363
2.70513
2.68409
2.65781
2.6157
2.5391
2.45275
2.40656
2.37936
2.3554
2.33473
2.31694
2.29473
2.23312
5.9968
5.67996
5.36716
5.04924
4.75377
4.48337
4.2128
3.93997
3.71094
3.4743
3.27024
3.08257
3.18797
3.71592
4.49116
4.79113
4.88861
4.77939
4.58908
4.43987
4.27138
4.08839
3.99167
3.92669
3.84756
3.74931
3.63624
3.49071
3.33476
3.23112
3.15739
3.0864
3.01298
2.93322
2.84025
2.73045
2.62065
2.53793
2.47769
2.42165
2.3595
2.29244
2.24433
2.20714
2.23751
2.49247
3.07926
3.74731
4.21451
4.422
4.47383
4.38879
4.27661
4.2118
4.17116
4.13311
4.0939
4.0352
3.94454
3.85866
3.80481
3.7644
3.72602
3.68508
3.63409
3.56205
3.48072
3.42212
3.38008
3.33944
3.29328
3.2289
3.14136
3.08634
3.06217
3.03993
3.01642
2.98726
2.93549
2.83442
2.73628
2.70543
2.68958
2.67728
2.66464
2.64503
2.61346
2.54177
2.42986
2.36591
2.34577
2.33246
2.32485
2.31434
2.29319
2.23723
6.02379
5.7254
5.41966
5.11918
4.85108
4.58473
4.30176
4.05908
3.81426
3.61825
3.47589
3.71739
4.43618
5.27637
5.43929
5.2358
5.08191
4.94552
4.84163
4.72708
4.55703
4.33487
4.18331
4.09417
4.00777
3.90621
3.79184
3.65246
3.49458
3.3786
3.29653
3.21695
3.13459
3.0501
2.95648
2.84506
2.72469
2.62895
2.55879
2.49947
2.44301
2.38082
2.31094
2.24974
2.19209
2.14275
2.19231
2.49879
3.09726
3.70873
4.15643
4.21699
4.24246
4.20709
4.12932
4.06887
4.02544
3.97239
3.90727
3.8268
3.75858
3.7152
3.67992
3.64451
3.60326
3.54245
3.45749
3.38178
3.33069
3.28985
3.24976
3.19982
3.12912
3.06043
3.02113
2.99579
2.97314
2.948
2.90914
2.83605
2.73195
2.67201
2.653
2.63881
2.62835
2.61347
2.58721
2.53277
2.43623
2.35214
2.32406
2.31258
2.30103
2.28723
2.27401
2.24063
6.07342
5.78787
5.4938
5.21158
4.95389
4.67844
4.40048
4.16638
3.96594
3.98399
4.43085
5.24699
5.86659
6.13601
5.95585
5.59267
5.27005
5.10112
5.03548
4.95426
4.79575
4.58254
4.39454
4.28383
4.18193
4.0684
3.94537
3.80801
3.65494
3.51649
3.41872
3.3329
3.24442
3.15241
3.05706
2.95289
2.83603
2.72456
2.64076
2.57383
2.51361
2.45304
2.39085
2.31907
2.23582
2.15523
2.10064
2.08974
2.17796
2.50999
3.12442
3.6409
3.97811
4.06155
4.05855
4.03322
3.9692
3.91648
3.877
3.81169
3.72847
3.66936
3.62985
3.59523
3.55875
3.5053
3.42469
3.34377
3.28931
3.24995
3.2152
3.17501
3.11582
3.03869
2.97908
2.94127
2.91279
2.88681
2.85922
2.82307
2.75618
2.66302
2.6142
2.59692
2.58315
2.56601
2.54267
2.50632
2.4456
2.36441
2.30693
2.28479
2.27304
2.26526
2.26217
2.35944
6.15401
5.86218
5.57878
5.30048
5.04866
4.74377
4.51398
4.35195
4.58961
5.36512
6.26805
6.43646
6.4138
6.3452
6.13038
5.85992
5.55752
5.33506
5.22889
5.14483
5.00686
4.82175
4.60924
4.4616
4.34815
4.22587
4.09814
3.96399
3.81598
3.66714
3.54056
3.43728
3.34353
3.25141
3.15764
3.05772
2.94631
2.82869
2.727
2.64784
2.58109
2.51612
2.45147
2.38387
2.30857
2.21983
2.13555
2.06387
2.03951
2.04625
2.16575
2.5379
3.0984
3.53603
3.80978
3.85953
3.89369
3.89521
3.86001
3.78959
3.70622
3.63387
3.57689
3.53168
3.48864
3.43848
3.37314
3.30058
3.2504
3.21864
3.19214
3.16182
3.11459
3.02914
2.93758
2.90443
2.88566
2.86075
2.83469
2.80547
2.75994
2.68964
2.6135
2.56362
2.5325
2.50585
2.48031
2.45568
2.42822
2.37858
2.31013
2.27009
2.25924
2.28259
2.37378
2.76276
6.21614
5.91878
5.63273
5.37553
5.10125
4.8634
4.83907
5.34885
6.32428
7.26075
7.40909
7.02948
6.66444
6.39357
6.23343
6.09172
5.87653
5.6264
5.44339
5.32457
5.20306
5.03872
4.8293
4.63401
4.50119
4.37313
4.24103
4.10786
3.96483
3.81267
3.67023
3.54806
3.43817
3.33557
3.23836
3.14114
3.03612
2.9225
2.81464
2.72386
2.64786
2.57842
2.50929
2.43599
2.3584
2.27497
2.19254
2.11373
2.05169
2.00816
1.98102
2.00005
2.13152
2.50501
3.02092
3.42951
3.62694
3.76977
3.78711
3.75733
3.69082
3.60144
3.5344
3.48861
3.4466
3.39339
3.32093
3.23409
3.19362
3.18425
3.16809
3.13894
3.09296
3.02865
2.94675
2.86173
2.79872
2.771
2.74931
2.73031
2.71236
2.68671
2.63219
2.54566
2.48724
2.46343
2.44831
2.43227
2.40958
2.38444
2.33209
2.32036
2.37976
2.56611
2.87044
3.3387
6.23007
5.9954
5.67567
5.44573
5.24688
5.50295
6.43494
7.40411
7.90503
7.97257
7.69748
7.28029
6.89351
6.63928
6.47097
6.33235
6.16289
5.92673
5.68714
5.51462
5.37962
5.22522
5.03545
4.82997
4.6611
4.51889
4.37869
4.23922
4.09653
3.94545
3.79468
3.66023
3.54112
3.4283
3.31773
3.21021
3.10491
2.99616
2.88833
2.79248
2.71013
2.63514
2.56322
2.49001
2.40758
2.31695
2.23371
2.1636
2.1035
2.04233
1.98604
1.95431
1.91705
1.94079
2.08231
2.47236
2.93781
3.41144
3.61229
3.62646
3.60135
3.53491
3.45112
3.39218
3.35153
3.3094
3.26211
3.20415
3.14174
3.09738
3.08192
3.0737
3.05523
3.01894
2.95093
2.846
2.75253
2.71331
2.70256
2.69733
2.68903
2.66951
2.62499
2.55608
2.48559
2.41901
2.37967
2.3707
2.36938
2.38738
2.46296
2.64025
2.95008
3.25681
3.55244
3.67097
5.83977
6.01217
5.77009
5.70487
6.35852
7.7331
8.67699
8.63657
8.42621
8.15377
7.82669
7.50918
7.19767
6.98603
6.78516
6.56485
6.37507
6.16498
5.92778
5.71291
5.54144
5.38403
5.21196
5.02452
4.84011
4.66975
4.51015
4.35624
4.204
4.05196
3.90285
3.7633
3.63746
3.5195
3.40151
3.28031
3.1641
3.05809
2.95237
2.85032
2.76287
2.68546
2.60749
2.52961
2.45454
2.37648
2.28953
2.20556
2.13424
2.06918
2.01056
1.96004
1.91579
1.89266
1.83783
1.86831
2.04154
2.46496
2.93396
3.30097
3.48144
3.48689
3.45212
3.38893
3.32553
3.28053
3.24092
3.19482
3.13094
3.0561
2.99503
2.96435
2.94134
2.91671
2.89081
2.84645
2.77137
2.69586
2.63155
2.59744
2.58406
2.57481
2.56954
2.54815
2.49235
2.413
2.36133
2.36505
2.42448
2.62558
2.97183
3.3735
3.58025
3.71599
3.81547
3.78929
4.19691
5.56337
6.08236
7.43863
8.94418
9.72542
9.48296
8.95815
8.59659
8.2941
8.0268
7.76943
7.48505
7.28361
7.08928
6.83316
6.58477
6.37881
6.16319
5.93556
5.72655
5.55018
5.38162
5.19918
5.00818
4.82121
4.64044
4.46849
4.30017
4.13679
3.99137
3.86177
3.73875
3.62134
3.5038
3.37472
3.23456
3.09552
2.9943
2.91407
2.82234
2.73465
2.66123
2.58217
2.49076
2.40321
2.3301
2.25521
2.17783
2.11986
2.06765
2.01169
1.95609
1.89498
1.82942
1.78514
1.74832
1.79891
2.0392
2.46401
2.92211
3.20553
3.33207
3.31365
3.26524
3.25498
3.23439
3.19188
3.13293
3.05128
2.95178
2.87754
2.84917
2.82745
2.80639
2.78623
2.75826
2.68979
2.61097
2.56023
2.52491
2.50125
2.47956
2.46777
2.46196
2.4404
2.46721
2.62504
2.94612
3.33906
3.60556
3.81329
3.90969
3.92341
3.91873
3.85718
1.85386
3.99516
8.35686
10.4653
10.4168
10.2028
9.72954
9.2241
8.8885
8.61519
8.31748
8.02893
7.71563
7.49472
7.31244
7.07762
6.79961
6.55357
6.3463
6.14011
5.91773
5.69855
5.5108
5.32597
5.12779
4.95285
4.77608
4.58787
4.41271
4.24484
4.07228
3.92831
3.8084
3.69588
3.59657
3.49021
3.35173
3.19494
3.04554
2.93631
2.87534
2.81001
2.7389
2.66376
2.56545
2.45894
2.3565
2.30282
2.26114
2.20551
2.14826
2.09274
2.03732
1.97
1.89714
1.80562
1.72994
1.6884
1.70034
1.78839
2.08036
2.52186
2.92924
3.02493
3.07212
3.10231
3.10923
3.09552
3.0675
3.0133
2.93167
2.84
2.77317
2.75086
2.73668
2.72262
2.70234
2.67966
2.63853
2.57107
2.49296
2.45253
2.44438
2.4493
2.49098
2.66353
2.98234
3.38611
3.68734
3.87733
3.97626
4.01568
4.01428
3.9796
3.91816
3.81952
1.05777
3.29872
11.285
11.9134
10.8793
10.3442
9.88118
9.44805
9.13419
8.83197
8.6121
8.32126
7.98762
7.75251
7.58045
7.37219
7.11296
6.82267
6.59864
6.39556
6.1703
5.90272
5.61797
5.42557
5.29737
5.14252
4.97133
4.76556
4.52662
4.35074
4.22651
4.08941
3.95167
3.81912
3.67267
3.52412
3.39948
3.2933
3.16527
3.02825
2.88598
2.77069
2.69565
2.6462
2.60883
2.54701
2.45514
2.3474
2.24895
2.17558
2.11444
2.05869
2.00591
1.95018
1.89007
1.82049
1.75613
1.70217
1.66044
1.62438
1.65085
1.77079
2.06796
2.51456
2.88076
2.95523
2.99721
3.01831
2.99327
2.94753
2.9049
2.83635
2.74873
2.69006
2.66283
2.64238
2.62102
2.59811
2.57192
2.53572
2.49166
2.46206
2.47931
2.61256
2.94153
3.41059
3.75973
4.00274
4.11552
4.11276
4.07936
4.03593
3.99622
3.9485
3.89158
3.80507
1.0013
3.94372
11.3641
11.4909
10.633
10.2091
9.86794
9.57192
9.35117
9.11786
8.91824
8.58819
8.21466
7.93512
7.7362
7.52336
7.2605
6.97384
6.68462
6.44653
6.27672
6.09187
5.85178
5.59868
5.33648
5.11992
4.96017
4.82821
4.68528
4.49626
4.29131
4.0993
3.92589
3.77682
3.65679
3.55295
3.45024
3.32343
3.17779
3.02906
2.90416
2.81865
2.74738
2.67192
2.58908
2.5071
2.42432
2.3404
2.26219
2.19472
2.13186
2.07358
2.01969
1.96742
1.91941
1.86863
1.80812
1.73722
1.66984
1.61569
1.58636
1.57881
1.61772
1.78928
2.16799
2.53529
2.78773
2.90398
2.93101
2.92107
2.88613
2.82968
2.74454
2.66805
2.61521
2.57516
2.55044
2.53174
2.52665
2.52343
2.54922
2.65402
2.93784
3.37983
3.83249
4.0787
4.17777
4.21335
4.19684
4.1477
4.07213
3.99122
3.94171
3.91204
3.88575
3.83848
1.00002
4.70146
10.7931
11.0869
10.641
10.3556
10.0919
9.83609
9.60208
9.34209
9.04317
8.69176
8.35717
8.08374
7.85729
7.66859
7.41337
7.1199
6.82564
6.56529
6.33568
6.13072
5.93038
5.71107
5.46686
5.23716
5.04071
4.86497
4.69899
4.53486
4.35303
4.16979
4.00206
3.85395
3.72091
3.5962
3.47379
3.34351
3.20326
3.07138
2.96446
2.87572
2.78974
2.69885
2.6022
2.50955
2.42765
2.35508
2.29028
2.22989
2.16517
2.09532
2.02555
1.95524
1.89001
1.83316
1.78476
1.73644
1.69005
1.64518
1.59771
1.54775
1.51068
1.52212
1.60479
1.85737
2.25713
2.53807
2.72877
2.81236
2.79258
2.7644
2.72939
2.67943
2.59759
2.53516
2.52137
2.51083
2.53727
2.65752
2.97658
3.41352
3.85235
4.12209
4.29123
4.32482
4.3157
4.27692
4.20496
4.09833
4.0005
3.94347
3.92671
3.91396
3.89932
3.85787
1
4.89403
10.4584
10.7785
10.5872
10.3943
10.1516
9.91285
9.67536
9.42891
9.13896
8.81861
8.52074
8.25751
8.01755
7.79223
7.51199
7.19746
6.90909
6.67833
6.43966
6.21299
6.00086
5.77736
5.54355
5.31968
5.11143
4.91745
4.73715
4.56247
4.3893
4.2214
4.06127
3.90662
3.75671
3.61382
3.48033
3.35661
3.24244
3.13468
3.02616
2.91355
2.79869
2.6877
2.5869
2.50713
2.4442
2.38573
2.32573
2.25918
2.1818
2.09612
2.01349
1.94061
1.88223
1.83634
1.79813
1.76233
1.72225
1.67076
1.60428
1.5381
1.49709
1.47832
1.4706
1.50356
1.63376
1.93467
2.33559
2.56445
2.61613
2.65902
2.66098
2.61941
2.56948
2.5491
2.55859
2.65997
2.92583
3.36471
3.87552
4.17944
4.31077
4.37063
4.40381
4.38786
4.33194
4.23835
4.1467
4.05308
3.9903
3.97358
3.96833
3.95437
3.93492
3.87995
1
4.79818
10.3227
10.6967
10.4947
10.3587
10.1655
9.9567
9.71731
9.45414
9.1635
8.87122
8.59954
8.35464
8.12391
7.87499
7.58566
7.28212
7.00408
6.77771
6.56882
6.33382
6.09554
5.84903
5.5979
5.36625
5.1578
4.9681
4.78792
4.60809
4.42761
4.25149
4.08509
3.92877
3.78117
3.64234
3.5122
3.3885
3.26894
3.15148
3.03261
2.91274
2.79665
2.69209
2.60456
2.53122
2.46286
2.39416
2.32297
2.24841
2.17008
2.08955
2.01083
1.94401
1.89437
1.85301
1.813
1.77154
1.72598
1.67259
1.60992
1.54995
1.50607
1.47453
1.44649
1.42323
1.42031
1.4816
1.67029
2.00478
2.33531
2.54943
2.60298
2.58767
2.60308
2.71027
2.95574
3.36695
3.78405
4.14306
4.36756
4.43656
4.46712
4.4307
4.37513
4.32119
4.2615
4.19157
4.1099
4.02229
3.99162
3.98632
3.98332
3.9687
3.94412
3.87981
1
4.64385
10.3038
10.6998
10.4955
10.3541
10.1515
9.92876
9.69116
9.44888
9.19802
8.94191
8.68412
8.4211
8.14508
7.85218
7.5563
7.27693
7.02621
6.80244
6.57298
6.31083
6.0578
5.83499
5.62046
5.41444
5.21471
5.014
4.80901
4.60756
4.42258
4.25774
4.10929
3.96894
3.82735
3.67638
3.51863
3.37085
3.24331
3.1321
3.02917
2.92957
2.8293
2.72505
2.61888
2.52544
2.44652
2.37518
2.30829
2.24264
2.17377
2.1036
2.03538
1.9664
1.90192
1.84797
1.8013
1.75949
1.71947
1.67388
1.61897
1.56809
1.52424
1.47717
1.43582
1.40054
1.38312
1.372
1.39799
1.5126
1.79467
2.12688
2.38932
2.62934
2.99832
3.43069
3.80116
4.08976
4.27735
4.43956
4.45979
4.40957
4.37485
4.35934
4.34478
4.30478
4.25979
4.20358
4.11822
4.04008
4.00822
3.99058
3.97448
3.95273
3.92672
3.86224
1
4.54297
10.2952
10.7086
10.4976
10.3512
10.1586
9.9504
9.72413
9.49082
9.25155
9.00024
8.73126
8.44481
8.15469
7.87403
7.60977
7.3623
7.12621
6.8887
6.62908
6.35113
6.10214
5.89224
5.6845
5.47165
5.25587
5.03051
4.80197
4.59126
4.41386
4.26377
4.12749
3.99143
3.8441
3.67821
3.50357
3.34839
3.22678
3.12921
3.04225
2.95591
2.85578
2.73466
2.61183
2.51188
2.43266
2.36345
2.30334
2.24903
2.19348
2.127
2.04396
1.9606
1.89236
1.837
1.7888
1.74731
1.71077
1.67497
1.63765
1.59028
1.52544
1.46451
1.41839
1.38984
1.37334
1.35612
1.33381
1.33497
1.39592
1.63939
2.14482
2.88361
3.62328
4.24019
4.76692
4.95534
4.82332
4.70934
4.53537
4.38954
4.32521
4.28919
4.27485
4.25808
4.22356
4.18191
4.11362
4.05364
4.02454
3.99868
3.96966
3.94173
3.91452
3.85112
)
;

boundaryField
{
    inlet
    {
        type            fixedValue;
        value           uniform 1;
    }
    outlet
    {
        type            zeroGradient;
    }
    bottom
    {
        type            symmetryPlane;
    }
    top
    {
        type            symmetryPlane;
    }
    obstacle
    {
        type            zeroGradient;
    }
    defaultFaces
    {
        type            empty;
    }
}


// ************************************************************************* //
