/*--------------------------------*- C++ -*----------------------------------*\
  =========                 |
  \\      /  F ield         | OpenFOAM: The Open Source CFD Toolbox
   \\    /   O peration     | Website:  https://openfoam.org
    \\  /    A nd           | Version:  7
     \\/     M anipulation  |
\*---------------------------------------------------------------------------*/
FoamFile
{
    version     2.0;
    format      ascii;
    class       volScalarField;
    location    "3.9";
    object      T;
}
// * * * * * * * * * * * * * * * * * * * * * * * * * * * * * * * * * * * * * //

dimensions      [0 0 0 1 0 0 0];

internalField   nonuniform List<scalar> 
4032
(
1
1
1
1
1
1
1
1
1
1
1
1.15577
2.40374
2.71638
2.72761
2.74344
2.75766
2.77105
2.78268
2.79218
2.80004
2.80654
2.81177
2.81543
1
1
1
1
1
1
1
1
1
1
1
1.13758
2.38834
2.71483
2.7266
2.74178
2.75579
2.76895
2.78033
2.78951
2.79698
2.80304
2.80775
2.8111
1
1
1
1
1
1
1
1
1
1
1
1.0819
2.34777
2.71092
2.72299
2.7384
2.75249
2.76552
2.77666
2.78546
2.79254
2.79834
2.80281
2.80614
1
1
1
1
1
1
1
1
1
1
1
1.00511
2.28064
2.70297
2.71802
2.73344
2.74713
2.75941
2.77
2.77848
2.7854
2.79096
2.79493
2.79762
1
1
1
1
1
1
1
1
1
1
1
1.00004
2.19589
2.68901
2.70899
2.72421
2.73806
2.75003
2.76012
2.76771
2.77325
2.77749
2.78026
2.78353
1
1
1
1
1
1
1
1
1
1
1
1
2.07784
2.66949
2.69976
2.7139
2.72739
2.7386
2.74781
2.75476
2.75976
2.76281
2.76188
2.75678
1
1
1
1
1
1
1
1
1
1
1
1
1.91631
2.6316
2.68324
2.69925
2.71339
2.72411
2.73185
2.73646
2.73738
2.7337
2.72584
2.71916
1
1
1
1
1
1
1
1
1
1
1
1
1.69291
2.55713
2.65542
2.67917
2.69566
2.70682
2.71318
2.71492
2.71169
2.70611
2.70121
2.71306
1
1
1
1
1
1
1
1
1
1
1
1
1.37323
2.43062
2.63095
2.65409
2.67276
2.68491
2.68992
2.6889
2.68063
2.66175
2.61046
2.50997
1
1
1
1
1
1
1
1
1
1
1
1
1.04194
2.29792
2.63296
2.63288
2.64198
2.65279
2.65801
2.65506
2.64237
2.6095
2.5528
2.38962
1
1
1
1
1
1
1
1
1
1
1
1
1.00037
2.11841
2.59176
2.6024
2.61219
2.61712
2.62034
2.61565
2.60072
2.56252
2.49925
2.31635
1
1
1
1
1
1
1
1
1
1
1
1
0.999996
1.79584
2.51774
2.58507
2.59442
2.59259
2.58969
2.58007
2.56034
2.52158
2.44885
2.29245
1
1
1
1
1
1
1
1
1
1
1
1
0.999999
1.33121
2.36832
2.5677
2.56684
2.56496
2.55913
2.54532
2.52098
2.4823
2.40735
2.28676
1
1
1
1
1
1
1
1
1
1
1
1
1
1.02989
2.18687
2.52367
2.53427
2.53377
2.52842
2.51394
2.4887
2.44683
2.37705
2.28614
1
1
1
1
1
1
1
1
1
1
1
1
1
1.00012
1.80358
2.43657
2.51341
2.51033
2.50297
2.48596
2.46049
2.41646
2.35522
2.28212
1
1
1
1
1
1
1
1
1
1
1
1
1
0.999999
1.21348
2.2764
2.49506
2.48088
2.47194
2.45579
2.42989
2.39138
2.33966
2.27825
1
1
1
1
1
1
1
1
1
1
1
1
1
1
1.0106
2.07101
2.4419
2.43491
2.43282
2.42239
2.40147
2.36947
2.3257
2.2727
1
1
1
1
1
1
1
1
1
1
1
1
1
1
1
1.55897
2.31954
2.41568
2.40784
2.39499
2.37542
2.34693
2.30994
2.26482
1
1
1
1
1
1
1
1
1
1
1
1
1
1
0.999997
1.08041
2.10565
2.3909
2.382
2.36848
2.34891
2.32313
2.29158
2.25348
1
1
1
1
1
1
1
1
1
1
1
1
1
1
0.999999
1.00126
1.63425
2.26629
2.35888
2.34195
2.32337
2.30033
2.27284
2.2402
1
1
1
1
1
1
1
1
1
1
1
1
1
1
1
1
1.11605
2.05914
2.33105
2.31514
2.30138
2.28087
2.25551
2.22596
1
1
1
1
1
1
1
1
1
1
1
1
1
1
1
1
1.0028
1.56938
2.18824
2.29158
2.27381
2.25555
2.23398
2.20898
1
1
1
1
1
1
1
1
1
1
1
1
1
1
1
1
1.00001
1.09519
1.96779
2.26632
2.24704
2.23175
2.21375
2.19292
1
1
1
1
1
1
1
1
1
1
1
1
1
1
1
1
1
1.00198
1.43258
2.09409
2.22301
2.20554
2.19043
2.17285
1
1
1
1
1
1
1
1
1
1
1
1
1
1
1
1
1
1.00001
1.04967
1.79323
2.18753
2.18374
2.17049
2.15438
1
1
1
1
1
1
1
1
1
1
1
1
1
1
1
1
1
1
1.00068
1.25208
1.98614
2.164
2.14687
2.13019
1
1
1
1
1
1
1
1
1
1
1
1
1
1
1
1
1
1
1
1.01493
1.54303
2.04545
2.13226
2.11307
1
1
1
1
1
1
1
1
1
1
1
1
1
1
1
1
1
1
1
1.00013
1.09207
1.77418
2.09083
2.09861
1
1
1
1
1
1
1
1
1
1
1
1
1
1
1
1
1
1
1
1
1.00222
1.26526
1.89365
2.07567
1
1
1
1
1
1
1
1
1
1
1
1
1
1
1
1
1
1
1
1
1.00001
1.01754
1.45503
1.94714
1
1
1
1
1
1
1
1
1
1
1
1
1
1
1
1
1
1
1
1
1
1.00019
1.06451
1.62135
1
1
1
1
1
1
1
1
1
1
1
1
1
1
1
1
1
1
1
1
1
1
1.00138
1.15545
1
1
1
1
1
1
1
1
1
1
1
1
1
1
1
1
1
1
1
1
1
1
1.00001
1.0067
1
1
1
1
1
1
1
1
1
1
1
1
1
1
1
1
1
1
1
1
1
1
1
1.00006
1
1
1
1
1
1
1
1
1
1
1
1
1
1
1
1
1
1
1
1
1
1
1
1
1
1
1
1
1
1
1
1
1
1
1
1
1
1
1
1
1
1
1
1
1
1
1
1
1
1
1
1
1
1
1
1
1
1
1
1
1
1
1
1
1
1
1
1
1
1
1
1
1
1
1
1
1
1
1
1
1
1
1
1
1
1
1
1
1
1
1
1
1
1
1
1
1
1
1
1
1
1
1
1
1
1
1
1
1
1
1
1
1
1
1
1
1
1
1
1
1
1
1
1
1
1
1
1
1
1
1
1
1
1
1
1
1
1
1
1
1
1
1
1
1.68584
1.18055
0.917054
0.963041
1.14369
1.26695
1.34866
1.45313
1.53035
1.56325
1.59849
1.63815
1.66843
1.70742
1.73895
1.73214
1.70141
1.69285
1.7147
1.73762
1.74261
1.72859
1.70236
1.67893
1.67448
1.69379
1.71201
1.99938
2.71423
2.81864
2.81375
2.81517
2.81277
2.80537
2.79456
2.78152
2.76429
2.74347
2.72324
2.70602
2.69275
2.68225
2.67009
2.65255
2.63246
2.61385
2.59919
2.58912
2.57919
2.56249
2.54055
2.5183
2.49849
2.48298
2.47246
2.46343
2.44977
2.43256
2.41533
2.39976
2.38714
2.37658
2.36314
2.34758
2.33156
2.31499
2.29984
2.2864
2.27522
2.26641
2.25699
2.24484
2.23136
2.2159
2.19929
2.18483
2.17339
2.1637
2.15576
2.14833
2.13855
2.12607
2.10906
2.09295
2.08134
2.07191
2.06316
2.05439
2.04499
2.03379
2.01906
2.00472
1.99566
1.98848
1.98501
1.97502
1.92364
1.67058
1.44722
1.30777
1.30979
1.29558
1.28713
1.29704
1.29835
1.30714
1.3403
1.39721
1.46451
1.53299
1.58299
1.59848
1.59967
1.60538
1.62725
1.65616
1.67705
1.67886
1.66994
1.64775
1.63984
1.64886
1.66214
1.8928
2.63658
2.81071
2.80493
2.79498
2.78062
2.7677
2.75629
2.74563
2.73239
2.71217
2.68829
2.66581
2.64868
2.63921
2.63571
2.62914
2.61216
2.59085
2.56998
2.55091
2.53736
2.52877
2.51847
2.50201
2.48226
2.46351
2.44685
2.43339
2.42433
2.41493
2.40254
2.38823
2.37276
2.35703
2.34203
2.32955
2.31847
2.30638
2.29279
2.27829
2.26399
2.25101
2.2385
2.22835
2.21873
2.20774
2.19594
2.18237
2.1683
2.15544
2.1446
2.13469
2.12584
2.11611
2.10433
2.0916
2.07821
2.06572
2.05584
2.04754
2.03932
2.02988
2.01825
2.00475
1.99263
1.98391
1.97811
1.96674
2.02621
1.84237
1.69347
1.54165
1.42927
1.38054
1.35
1.31445
1.26225
1.2255
1.23735
1.27368
1.31282
1.36141
1.40957
1.43375
1.45646
1.48629
1.51009
1.53552
1.56454
1.59268
1.60502
1.60163
1.59684
1.59165
1.59039
1.65243
2.45033
2.73922
2.72246
2.70594
2.68741
2.6698
2.65449
2.64515
2.6373
2.62831
2.61052
2.58798
2.56605
2.54968
2.54288
2.54371
2.54245
2.53208
2.51556
2.49188
2.46998
2.45425
2.44515
2.43987
2.42997
2.41521
2.39766
2.37904
2.36576
2.35722
2.35291
2.34747
2.33674
2.32172
2.30187
2.28436
2.27277
2.26472
2.25867
2.24988
2.2386
2.22327
2.20471
2.18956
2.17974
2.17339
2.16899
2.16165
2.15246
2.13959
2.12214
2.10553
2.09349
2.08484
2.07893
2.07187
2.06347
2.05303
2.03974
2.02718
2.01862
2.01171
2.00457
1.99608
1.98457
1.97087
1.9607
1.94745
2.09998
1.94003
1.82225
1.71348
1.59172
1.49511
1.44919
1.42067
1.38648
1.33902
1.29199
1.26726
1.26955
1.28224
1.30456
1.32439
1.34674
1.38324
1.41241
1.43243
1.45437
1.48202
1.51623
1.53386
1.53662
1.53569
1.54385
1.60342
2.17126
2.61091
2.60431
2.57421
2.55806
2.5421
2.52716
2.51538
2.50489
2.49845
2.49236
2.47835
2.46221
2.44398
2.43166
2.42626
2.42556
2.4234
2.41625
2.40519
2.38771
2.36952
2.35672
2.34738
2.34012
2.32979
2.3183
2.30644
2.29236
2.28209
2.27653
2.27179
2.26557
2.25718
2.24598
2.22992
2.21356
2.20351
2.19636
2.19016
2.18277
2.17389
2.16287
2.14904
2.13515
2.12593
2.11978
2.11446
2.10812
2.09913
2.08604
2.07014
2.05652
2.04702
2.03982
2.03403
2.02864
2.02249
2.01302
1.99925
1.98847
1.98273
1.97765
1.97189
1.96434
1.95208
1.93665
1.91719
2.14864
2.01877
1.90432
1.80746
1.72323
1.63903
1.5368
1.48815
1.46862
1.43978
1.39806
1.33791
1.29324
1.28324
1.28847
1.30509
1.31242
1.32187
1.33114
1.34426
1.36486
1.39803
1.44284
1.47553
1.48793
1.50346
1.57565
1.71855
1.94228
2.36535
2.49353
2.47099
2.45541
2.4393
2.4267
2.41414
2.40567
2.39867
2.39633
2.39152
2.38181
2.36915
2.35172
2.33925
2.33241
2.32812
2.32565
2.32054
2.312
2.29837
2.2822
2.27009
2.25987
2.25158
2.2437
2.2362
2.2281
2.2175
2.2067
2.19953
2.19395
2.18854
2.18221
2.17332
2.16061
2.146
2.13446
2.12571
2.11803
2.11115
2.10491
2.09869
2.09075
2.07984
2.06863
2.05927
2.05031
2.04077
2.03092
2.02228
2.01473
2.00658
1.99827
1.9914
1.98553
1.97952
1.97173
1.96138
1.95202
1.94637
1.94203
1.9373
1.93129
1.92083
1.90482
1.88193
2.18122
2.07682
1.98009
1.8783
1.79656
1.73341
1.65827
1.57677
1.52262
1.50354
1.48108
1.44513
1.39525
1.34284
1.32458
1.32796
1.32533
1.3181
1.31835
1.31288
1.31354
1.3269
1.35636
1.39322
1.43895
1.51215
1.6998
1.86409
1.91694
2.08004
2.3206
2.38112
2.41024
2.40133
2.38172
2.36033
2.34251
2.33568
2.33394
2.33809
2.33475
2.32548
2.31036
2.29122
2.28106
2.27512
2.27248
2.27013
2.26288
2.2527
2.23732
2.22161
2.21177
2.20438
2.19858
2.1916
2.18386
2.17292
2.15865
2.14918
2.14438
2.14042
2.13557
2.12876
2.11774
2.10075
2.08463
2.07488
2.06861
2.06408
2.06064
2.05693
2.05139
2.04103
2.02489
2.01069
2.00052
1.9924
1.98643
1.98192
1.97705
1.97024
1.96113
1.95221
1.94492
1.9382
1.93098
1.92275
1.91419
1.90758
1.90309
1.8986
1.89292
1.88381
1.87051
1.84916
2.19812
2.11184
2.03001
1.94212
1.85985
1.79288
1.73434
1.67283
1.61012
1.55377
1.52448
1.50582
1.47944
1.44278
1.38855
1.3578
1.34683
1.32912
1.3238
1.3272
1.32379
1.31616
1.31632
1.32794
1.39176
1.59464
1.76387
1.86918
1.88714
1.90158
2.05241
2.25412
2.35282
2.37669
2.3652
2.34446
2.31857
2.30715
2.30375
2.3091
2.31028
2.30272
2.29187
2.2742
2.25895
2.2517
2.2473
2.24482
2.23843
2.22964
2.2181
2.20366
2.192
2.18386
2.17606
2.1672
2.15808
2.14757
2.13541
2.12485
2.11853
2.11325
2.10651
2.09803
2.08654
2.07191
2.05663
2.04619
2.04042
2.03649
2.03369
2.02929
2.02282
2.01083
1.99167
1.97478
1.96607
1.96089
1.95675
1.95305
1.94902
1.94338
1.93359
1.92168
1.91296
1.90652
1.90024
1.89277
1.88319
1.87354
1.86706
1.86179
1.85604
1.8489
1.84134
1.82688
2.20802
2.13482
2.06328
1.989
1.91801
1.8506
1.78417
1.73399
1.69053
1.64021
1.5786
1.5389
1.52661
1.50899
1.47657
1.426
1.39748
1.37859
1.36024
1.35502
1.34482
1.33123
1.33333
1.37521
1.53869
1.70255
1.7531
1.78784
1.80078
1.80688
1.83326
1.98971
2.20304
2.32817
2.35223
2.34088
2.31678
2.29999
2.29074
2.2875
2.28894
2.28733
2.28011
2.26866
2.25251
2.24071
2.23336
2.22761
2.22442
2.21823
2.20958
2.19816
2.183
2.16853
2.1578
2.14957
2.1419
2.13442
2.12591
2.11484
2.10231
2.09171
2.08308
2.07458
2.06592
2.05703
2.04747
2.03686
2.02824
2.02289
2.01705
2.00958
1.99996
1.98769
1.97264
1.95867
1.95
1.94505
1.94187
1.93854
1.93366
1.92607
1.91366
1.8999
1.89081
1.88482
1.87888
1.87132
1.86055
1.84771
1.8384
1.83207
1.82644
1.82117
1.8174
1.80909
2.21205
2.14986
2.08651
2.01901
1.9582
1.90092
1.83793
1.77595
1.73583
1.69839
1.65298
1.60684
1.55819
1.5343
1.52172
1.49686
1.4587
1.42839
1.40685
1.38497
1.36897
1.36657
1.40831
1.55122
1.7066
1.75164
1.74603
1.74583
1.75161
1.75681
1.75426
1.76748
1.8887
2.11128
2.27212
2.32227
2.31926
2.30518
2.28968
2.27881
2.27345
2.26861
2.26581
2.25982
2.24986
2.23508
2.22394
2.21708
2.21188
2.20762
2.20016
2.19009
2.17471
2.15657
2.14528
2.13758
2.13102
2.12495
2.11719
2.10597
2.08984
2.07591
2.06774
2.061
2.05489
2.0492
2.04239
2.0334
2.02099
2.00765
1.99692
1.98756
1.97827
1.96897
1.9617
1.95529
1.94748
1.93853
1.93008
1.92194
1.91379
1.90559
1.89669
1.88682
1.87797
1.87111
1.865
1.85782
1.84725
1.83213
1.81855
1.81169
1.80782
1.80485
1.8043
1.79808
2.21272
2.15927
2.10234
2.04341
1.98791
1.93315
1.87781
1.82745
1.77981
1.72899
1.69425
1.66459
1.6232
1.57312
1.5463
1.5351
1.51206
1.47902
1.44977
1.42645
1.42819
1.47396
1.60992
1.75391
1.78722
1.7703
1.75951
1.75002
1.74829
1.75041
1.74972
1.74095
1.72834
1.78003
1.97878
2.17593
2.28044
2.29932
2.29527
2.27622
2.25981
2.25294
2.24801
2.24534
2.23839
2.22737
2.21314
2.20444
2.19853
2.19397
2.18629
2.17684
2.16347
2.14517
2.13274
2.12534
2.11935
2.11366
2.1061
2.09599
2.08009
2.06441
2.05632
2.05017
2.04588
2.04204
2.03542
2.0263
2.0124
1.99549
1.98237
1.97277
1.96462
1.95909
1.95536
1.95055
1.94349
1.93321
1.9203
1.90894
1.90005
1.89189
1.88424
1.87759
1.87122
1.86423
1.85591
1.84711
1.83741
1.82593
1.8128
1.8035
1.7993
1.79669
1.7939
1.78519
2.20987
2.16327
2.11147
2.06072
2.01166
1.95936
1.90562
1.86334
1.82021
1.77337
1.72625
1.69555
1.66636
1.6292
1.58924
1.56349
1.5444
1.51719
1.48878
1.49076
1.54081
1.68505
1.8185
1.83832
1.82388
1.8014
1.78382
1.77499
1.77297
1.76668
1.75571
1.74148
1.72202
1.71227
1.72482
1.84676
2.05911
2.21192
2.26141
2.26373
2.24345
2.23161
2.22478
2.22363
2.21959
2.21142
2.19833
2.18655
2.17976
2.17494
2.16872
2.16081
2.14964
2.13209
2.11728
2.10985
2.10444
2.09939
2.0926
2.08426
2.07135
2.05476
2.04482
2.03924
2.03445
2.02824
2.02119
2.01317
2.00119
1.9839
1.96948
1.9617
1.9565
1.95244
1.94831
1.94279
1.93605
1.92511
1.90958
1.89685
1.88852
1.88205
1.87637
1.86995
1.86105
1.84972
1.84026
1.83201
1.82485
1.81884
1.81238
1.80321
1.79263
1.7844
1.77815
1.76686
2.20349
2.16194
2.11699
2.07309
2.02774
1.97859
1.93332
1.89102
1.84771
1.80451
1.76644
1.73124
1.69382
1.66282
1.6331
1.60171
1.57227
1.54621
1.55289
1.61809
1.74231
1.87219
1.89037
1.87708
1.85942
1.83745
1.81358
1.80169
1.79342
1.78345
1.7718
1.75926
1.74269
1.71784
1.70125
1.7026
1.75214
1.91806
2.09387
2.18834
2.20119
2.2046
2.19883
2.19807
2.19381
2.18643
2.17665
2.1631
2.15468
2.14976
2.14483
2.13897
2.13113
2.11802
2.10137
2.09083
2.08488
2.07988
2.07405
2.06745
2.05877
2.0459
2.03201
2.02347
2.01735
2.01111
2.00443
1.99678
1.98659
1.97212
1.95884
1.9526
1.94822
1.94362
1.93799
1.93126
1.92255
1.91082
1.89671
1.88517
1.87837
1.87332
1.86805
1.86153
1.85175
1.83798
1.827
1.82259
1.8195
1.81548
1.80979
1.80015
1.78542
1.77087
1.76311
1.7526
2.19365
2.15666
2.11699
2.07871
2.03714
1.99214
1.95351
1.91388
1.87256
1.82948
1.79705
1.76293
1.72803
1.69019
1.66095
1.63414
1.60737
1.61963
1.70395
1.82206
1.90922
1.93368
1.92089
1.90633
1.89189
1.87181
1.84294
1.82318
1.81245
1.8037
1.79238
1.77825
1.76108
1.73977
1.71524
1.69543
1.68769
1.6963
1.77776
1.94096
2.07836
2.1369
2.15538
2.1633
2.16236
2.15536
2.14747
2.13648
2.1266
2.11988
2.11443
2.10934
2.10367
2.09592
2.08452
2.07162
2.06208
2.05564
2.05038
2.0452
2.03928
2.03067
2.0174
2.00346
1.9947
1.9888
1.98293
1.97631
1.96879
1.95983
1.94941
1.94057
1.9348
1.92951
1.92363
1.91648
1.90723
1.89557
1.88315
1.87386
1.86782
1.86247
1.85674
1.85001
1.84103
1.82911
1.81845
1.81164
1.80746
1.80352
1.79921
1.7923
1.77873
1.76144
1.75061
1.74125
2.18075
2.14858
2.11514
2.08057
2.04218
2.00388
1.96843
1.93101
1.89018
1.85437
1.82133
1.78695
1.75323
1.7167
1.68856
1.66784
1.69196
1.80175
1.9294
1.97065
1.96661
1.94959
1.93494
1.92906
1.91848
1.90142
1.87561
1.84603
1.82972
1.81779
1.805
1.79078
1.77608
1.7583
1.73483
1.71036
1.6869
1.67476
1.67134
1.69029
1.79726
1.94545
2.06014
2.09333
2.11464
2.12218
2.11582
2.10786
2.09863
2.09029
2.08159
2.07433
2.06953
2.06455
2.05813
2.04978
2.03924
2.0287
2.022
2.01749
2.01282
2.00668
1.99704
1.98287
1.96938
1.96227
1.95793
1.95398
1.94981
1.94427
1.93537
1.92336
1.91453
1.90926
1.90432
1.89848
1.89082
1.88058
1.86868
1.85929
1.85349
1.84824
1.84256
1.83601
1.82851
1.8199
1.80978
1.80031
1.79395
1.78911
1.78395
1.77783
1.76989
1.75657
1.74478
1.73345
2.16831
2.14004
2.11071
2.0791
2.04391
2.01087
1.97775
1.94198
1.904
1.87338
1.84011
1.80848
1.76866
1.74157
1.73007
1.77024
1.87869
2.01309
2.05097
2.02731
1.99214
1.96541
1.95447
1.95069
1.94089
1.92404
1.90147
1.87009
1.84412
1.82866
1.8143
1.79936
1.78441
1.76905
1.75014
1.72573
1.70147
1.68202
1.66381
1.65648
1.65471
1.68838
1.80574
1.93096
2.01989
2.05492
2.07024
2.07692
2.06965
2.06266
2.05149
2.03757
2.03198
2.02858
2.02494
2.02029
2.01308
2.0023
1.99178
1.98549
1.98083
1.97578
1.96917
1.95939
1.94605
1.93538
1.93138
1.929
1.92635
1.92268
1.91588
1.90347
1.89091
1.8849
1.88098
1.87689
1.87205
1.8653
1.85468
1.84118
1.83208
1.82757
1.82358
1.81944
1.81496
1.80906
1.80003
1.78791
1.778
1.77197
1.76665
1.7609
1.75484
1.74852
1.74125
1.72723
2.15164
2.1279
2.10228
2.07338
2.04221
2.01288
1.98195
1.94719
1.91616
1.88545
1.85438
1.82016
1.78786
1.79132
1.85625
1.96703
2.0619
2.0876
2.07273
2.04279
2.01112
1.98693
1.9755
1.96787
1.95546
1.93762
1.9162
1.88763
1.858
1.83939
1.82426
1.80834
1.79138
1.77421
1.75574
1.73308
1.70874
1.68916
1.67236
1.65513
1.64055
1.63108
1.63491
1.67891
1.78927
1.90454
1.98291
2.01276
2.0291
2.03222
2.02356
2.0064
1.99599
1.9922
1.98997
1.98707
1.98214
1.97358
1.96141
1.95227
1.94694
1.94236
1.93741
1.9312
1.92243
1.91179
1.9044
1.9008
1.89783
1.89426
1.88871
1.87835
1.86511
1.8593
1.85683
1.8543
1.85117
1.84643
1.837
1.82038
1.80838
1.80479
1.80263
1.80065
1.79817
1.7947
1.78818
1.77458
1.75871
1.75108
1.74681
1.74287
1.73951
1.73674
1.73274
1.72102
2.13534
2.11449
2.09147
2.06527
2.03858
2.01184
1.98261
1.95116
1.92374
1.89253
1.86373
1.83832
1.85958
1.95383
2.06885
2.11302
2.12331
2.10754
2.08148
2.05996
2.03497
2.00687
1.99015
1.9779
1.96323
1.94526
1.9244
1.89767
1.86853
1.84749
1.83115
1.81486
1.79792
1.77983
1.75924
1.73513
1.71054
1.69065
1.6749
1.65985
1.64431
1.62759
1.61621
1.60485
1.60987
1.6638
1.77506
1.881
1.94757
1.97784
1.98773
1.97836
1.96666
1.95994
1.95608
1.95242
1.9483
1.94141
1.93029
1.91997
1.91393
1.90961
1.90554
1.90119
1.8956
1.88725
1.87764
1.87126
1.8671
1.86299
1.85792
1.84991
1.83823
1.83194
1.83012
1.82843
1.82646
1.82335
1.81619
1.80007
1.78426
1.78107
1.77997
1.7795
1.77905
1.77721
1.77296
1.76077
1.74003
1.72922
1.7269
1.72562
1.72547
1.72466
1.72112
1.71107
2.1137
2.09596
2.07536
2.05267
2.03098
2.00704
1.97872
1.95236
1.92377
1.90011
1.88623
1.92935
2.04216
2.15283
2.17096
2.14721
2.126
2.10674
2.09277
2.07743
2.05418
2.02238
1.99835
1.98272
1.96741
1.94964
1.92937
1.90447
1.87585
1.85318
1.8358
1.8186
1.80067
1.78229
1.76232
1.73932
1.71421
1.69274
1.67567
1.6605
1.64597
1.63019
1.61401
1.5992
1.58695
1.57185
1.58199
1.64739
1.75818
1.85527
1.91843
1.92983
1.93636
1.93299
1.92527
1.91912
1.91435
1.90792
1.90012
1.89054
1.88268
1.87817
1.87464
1.87113
1.86691
1.86019
1.85029
1.84163
1.83631
1.83228
1.82821
1.82261
1.81393
1.80567
1.80193
1.8001
1.79855
1.79645
1.79202
1.78173
1.76537
1.75705
1.75606
1.75552
1.75563
1.75492
1.75182
1.74316
1.72621
1.71124
1.70797
1.70758
1.7071
1.70583
1.7035
1.69951
2.09532
2.07882
2.06021
2.04071
2.0216
1.99857
1.97277
1.95024
1.93031
1.93829
2.0106
2.12045
2.19882
2.22464
2.20519
2.16491
2.12726
2.10552
2.09541
2.08382
2.06318
2.03436
2.00625
1.98759
1.97035
1.95154
1.93087
1.90738
1.88077
1.8555
1.83633
1.81887
1.80046
1.78108
1.76121
1.74014
1.71698
1.69407
1.67542
1.6595
1.64467
1.62999
1.61539
1.59896
1.58081
1.56268
1.55072
1.54287
1.56297
1.63377
1.74548
1.8269
1.8761
1.8879
1.89123
1.88968
1.88367
1.87745
1.87256
1.86479
1.85505
1.84859
1.8446
1.8413
1.83778
1.83207
1.82276
1.81346
1.80774
1.80397
1.8006
1.79639
1.78953
1.78005
1.77366
1.77035
1.7681
1.76613
1.76381
1.76001
1.7512
1.73731
1.73112
1.73014
1.72946
1.72822
1.72566
1.72049
1.71087
1.69704
1.68757
1.68523
1.68405
1.68407
1.68628
1.71355
2.08273
2.06495
2.04691
2.02807
2.00996
1.98511
1.96611
1.95923
1.99591
2.1005
2.20656
2.22816
2.22542
2.21764
2.19565
2.16738
2.13533
2.10942
2.09479
2.08288
2.06489
2.0409
2.01174
1.98916
1.97085
1.95122
1.93036
1.9079
1.88301
1.85763
1.83493
1.81528
1.7968
1.77835
1.75949
1.73953
1.71781
1.69514
1.67485
1.65796
1.6429
1.62813
1.61354
1.59883
1.58268
1.56391
1.54553
1.52946
1.52288
1.52178
1.54781
1.62672
1.7274
1.79451
1.83344
1.84282
1.85171
1.85375
1.84958
1.84112
1.8313
1.82299
1.81668
1.8119
1.80747
1.80226
1.79494
1.78671
1.78181
1.77915
1.7768
1.77374
1.76834
1.75717
1.74561
1.74405
1.74391
1.74255
1.74077
1.73835
1.73354
1.72461
1.7132
1.7059
1.70227
1.69918
1.69597
1.69303
1.68955
1.68192
1.66985
1.66348
1.66444
1.67179
1.69521
1.78156
2.06746
2.04901
2.03094
2.01428
1.99408
1.97857
1.98683
2.0586
2.17604
2.27131
2.28878
2.25472
2.22063
2.19575
2.18028
2.16558
2.14289
2.11558
2.09409
2.07898
2.06315
2.04207
2.01483
1.98792
1.96761
1.94748
1.92649
1.90493
1.88157
1.85647
1.83215
1.81053
1.79074
1.77199
1.75382
1.73526
1.7152
1.69408
1.67431
1.65718
1.64209
1.62758
1.61268
1.59715
1.58125
1.56466
1.54766
1.53113
1.51696
1.50621
1.49862
1.50233
1.53178
1.61014
1.70213
1.7659
1.7954
1.81883
1.82313
1.81975
1.81184
1.80076
1.79278
1.78771
1.78351
1.77806
1.76979
1.75877
1.75558
1.75634
1.75581
1.75301
1.74721
1.73859
1.72743
1.7157
1.70892
1.70814
1.70766
1.70757
1.70754
1.70598
1.69898
1.68506
1.67628
1.67397
1.67282
1.67129
1.66794
1.66479
1.65785
1.65907
1.67499
1.71663
1.77556
1.85816
2.05106
2.03526
2.01366
1.99863
1.99555
2.03132
2.13898
2.23797
2.29128
2.29746
2.27526
2.24218
2.21028
2.18918
2.17424
2.16093
2.14373
2.11924
2.09339
2.07331
2.05654
2.03711
2.01324
1.98647
1.96262
1.94118
1.91972
1.89835
1.87638
1.85269
1.8285
1.80657
1.78688
1.76816
1.74971
1.73123
1.71212
1.6918
1.6724
1.65595
1.64169
1.62777
1.61335
1.59791
1.58084
1.56341
1.54809
1.53447
1.52158
1.50804
1.4946
1.48654
1.47743
1.4829
1.51599
1.59795
1.68147
1.75974
1.78703
1.79147
1.78871
1.78068
1.7699
1.76241
1.75811
1.75399
1.74896
1.74146
1.7327
1.72762
1.72741
1.72792
1.7266
1.72173
1.71147
1.69529
1.68283
1.68029
1.68158
1.68438
1.68603
1.68574
1.68117
1.67073
1.65887
1.64731
1.641
1.64124
1.64338
1.64973
1.67005
1.70945
1.76776
1.81942
1.86488
1.87978
1.96903
2.02442
2.00404
2.01078
2.08821
2.22291
2.30206
2.30624
2.29109
2.27302
2.24939
2.22686
2.20419
2.18814
2.17156
2.1523
2.1344
2.11335
2.08899
2.06574
2.04564
2.02634
2.00542
1.98254
1.95904
1.9358
1.91297
1.89066
1.86894
1.84744
1.82568
1.80442
1.78499
1.76672
1.74857
1.73001
1.71141
1.69236
1.67223
1.65453
1.64093
1.62829
1.61436
1.59969
1.58507
1.56966
1.55313
1.53783
1.52388
1.51007
1.49708
1.48582
1.47597
1.47011
1.45782
1.46653
1.51037
1.60158
1.68512
1.74483
1.77473
1.77705
1.7724
1.76376
1.75502
1.74925
1.74359
1.73611
1.72576
1.71397
1.70425
1.69961
1.69684
1.69387
1.6905
1.68431
1.67319
1.66157
1.65311
1.65106
1.65187
1.65348
1.65495
1.65298
1.644
1.62904
1.62258
1.62462
1.64024
1.68302
1.74801
1.81511
1.84561
1.86217
1.87419
1.87119
1.74014
1.94825
2.01528
2.15059
2.27455
2.3414
2.32466
2.2915
2.27175
2.25187
2.23416
2.21805
2.1986
2.18384
2.16857
2.14717
2.12451
2.10427
2.08306
2.06051
2.03856
2.01833
1.99815
1.9771
1.95539
1.93327
1.9104
1.88745
1.86475
1.84365
1.82483
1.80683
1.78914
1.77206
1.75431
1.7349
1.71454
1.6939
1.67716
1.6629
1.64735
1.63359
1.62208
1.60919
1.59361
1.57736
1.56312
1.54871
1.53436
1.52329
1.51264
1.50062
1.48825
1.47453
1.46022
1.45007
1.44744
1.46386
1.52512
1.61582
1.70158
1.74834
1.76933
1.76637
1.75734
1.75362
1.74907
1.74165
1.73177
1.7176
1.69913
1.68529
1.67958
1.67508
1.6712
1.66874
1.66505
1.65389
1.6412
1.63415
1.62982
1.62758
1.62549
1.62536
1.62543
1.62359
1.63121
1.66467
1.72305
1.78589
1.82623
1.85607
1.86868
1.8696
1.86942
1.86321
1.28016
1.70522
2.18732
2.34974
2.3651
2.35695
2.3287
2.29583
2.27543
2.25785
2.23736
2.21755
2.19495
2.17817
2.16359
2.14382
2.1193
2.09631
2.07625
2.05675
2.03634
2.01544
1.99544
1.97354
1.95081
1.93159
1.912
1.89101
1.87067
1.84941
1.82816
1.81159
1.7976
1.78375
1.77115
1.75668
1.73676
1.71384
1.69168
1.67425
1.66437
1.65491
1.64463
1.63357
1.618
1.59921
1.5795
1.5687
1.56097
1.55069
1.53954
1.52832
1.51694
1.50329
1.48871
1.46955
1.45148
1.44957
1.45583
1.48468
1.56052
1.65622
1.73342
1.74694
1.75108
1.7485
1.74608
1.74234
1.73586
1.72341
1.70604
1.68811
1.67382
1.6678
1.66383
1.66002
1.65588
1.65232
1.64541
1.63303
1.61894
1.61327
1.61332
1.61442
1.62337
1.6568
1.71317
1.77744
1.82066
1.84597
1.86157
1.86995
1.87017
1.86708
1.861
1.85076
1.02163
1.63553
2.50009
2.51879
2.45387
2.40923
2.36987
2.33216
2.30489
2.28171
2.26464
2.24202
2.21623
2.19786
2.18374
2.16587
2.14362
2.11842
2.09785
2.07849
2.05676
2.03079
2.00296
1.9841
1.97142
1.9556
1.93832
1.91753
1.89212
1.87366
1.86117
1.84735
1.83281
1.81778
1.80008
1.78103
1.76345
1.74785
1.72894
1.70775
1.68472
1.66616
1.65529
1.64877
1.64369
1.63353
1.61639
1.59514
1.57519
1.56034
1.54816
1.53717
1.52697
1.51663
1.5057
1.49238
1.4794
1.46962
1.46435
1.46493
1.47674
1.5152
1.59362
1.69083
1.75621
1.76273
1.75824
1.75459
1.74701
1.73454
1.72098
1.70244
1.68314
1.67008
1.66232
1.65585
1.6493
1.64323
1.63733
1.63006
1.62276
1.61658
1.61984
1.64514
1.70158
1.7733
1.82221
1.85625
1.87433
1.87514
1.87255
1.86986
1.86776
1.86389
1.85825
1.84929
1.0004
1.8876
2.72404
2.67179
2.56758
2.50534
2.45549
2.41425
2.3835
2.35664
2.33538
2.30496
2.27154
2.2458
2.22683
2.20689
2.18304
2.15724
2.13024
2.10609
2.08767
2.06883
2.04661
2.02412
1.99915
1.97807
1.96377
1.95266
1.94061
1.9237
1.90321
1.88195
1.86179
1.84411
1.82955
1.81647
1.80271
1.78461
1.76251
1.73895
1.71869
1.70475
1.69359
1.68135
1.66708
1.6525
1.63683
1.62002
1.60365
1.5893
1.57608
1.56404
1.55332
1.54359
1.53537
1.52728
1.51753
1.50548
1.49399
1.48446
1.48324
1.48748
1.50309
1.55387
1.64835
1.72226
1.76443
1.77297
1.76633
1.75771
1.74442
1.72695
1.70492
1.68517
1.67088
1.66017
1.65214
1.64496
1.64021
1.63674
1.64053
1.65823
1.70721
1.77647
1.83743
1.86931
1.88319
1.89446
1.89419
1.89051
1.88339
1.87524
1.87222
1.87144
1.87007
1.86549
1
2.08342
2.79755
2.77084
2.70428
2.64668
2.59396
2.54703
2.50724
2.46949
2.43224
2.39303
2.35619
2.32469
2.29818
2.27603
2.24881
2.21886
2.18903
2.16204
2.13874
2.11935
2.10082
2.08005
2.05729
2.03721
2.02106
2.00671
1.99307
1.97842
1.96014
1.93965
1.9196
1.90111
1.88362
1.86626
1.84867
1.82925
1.80749
1.78659
1.76924
1.75419
1.73904
1.72263
1.70476
1.68696
1.67054
1.65556
1.64174
1.62844
1.61408
1.59888
1.58429
1.57023
1.55779
1.54802
1.54097
1.53443
1.52779
1.51999
1.51116
1.50146
1.4943
1.49829
1.52282
1.59174
1.68859
1.73987
1.76721
1.76525
1.75681
1.74547
1.73146
1.71398
1.69172
1.67484
1.66569
1.65654
1.65821
1.67696
1.73095
1.79929
1.86053
1.89517
1.91556
1.92564
1.92564
1.92318
1.91668
1.90614
1.89732
1.89425
1.89543
1.89709
1.89712
1.89257
1
2.10381
2.77916
2.77689
2.75372
2.72271
2.68452
2.64615
2.60946
2.57372
2.53592
2.49654
2.45926
2.42534
2.3945
2.36582
2.33282
2.29775
2.26663
2.24226
2.2179
2.19538
2.17471
2.15356
2.13272
2.11356
2.09551
2.07796
2.06064
2.04254
2.02309
2.00266
1.98169
1.96007
1.93787
1.91581
1.89473
1.87474
1.85578
1.83755
1.81894
1.79906
1.77774
1.75616
1.73591
1.71932
1.70556
1.69245
1.67903
1.66436
1.64755
1.6291
1.61146
1.59634
1.58507
1.57721
1.5714
1.56619
1.55968
1.54961
1.53466
1.51807
1.5061
1.50072
1.49741
1.50675
1.54479
1.62529
1.71886
1.75379
1.75364
1.74921
1.74326
1.73071
1.71585
1.70147
1.69378
1.7073
1.75255
1.82241
1.89447
1.93575
1.95318
1.96043
1.96687
1.96541
1.95877
1.94788
1.93995
1.9333
1.93017
1.93164
1.93473
1.93507
1.93384
1.92497
1
2.07097
2.73766
2.76812
2.75054
2.73476
2.71334
2.68932
2.66184
2.63164
2.5986
2.56491
2.53258
2.50255
2.47435
2.44531
2.41315
2.38014
2.35054
2.32679
2.30508
2.2815
2.2583
2.23432
2.20952
2.18632
2.16482
2.14441
2.12392
2.10204
2.07847
2.05388
2.02919
2.00476
1.98079
1.95755
1.9352
1.91356
1.89231
1.87105
1.84911
1.8265
1.80405
1.78286
1.76413
1.74781
1.73229
1.71656
1.70035
1.68361
1.66633
1.64901
1.63232
1.61825
1.60825
1.60055
1.59335
1.58567
1.57647
1.56456
1.54927
1.53341
1.52038
1.50985
1.50012
1.49218
1.48739
1.50557
1.5623
1.64862
1.71987
1.75845
1.75545
1.74725
1.74416
1.75872
1.79839
1.86462
1.92497
1.97097
1.9979
2.00696
2.00987
2.00481
1.99684
1.98895
1.98169
1.97518
1.96916
1.96387
1.96421
1.96698
1.96911
1.96786
1.96359
1.94937
1
2.02774
2.70136
2.75576
2.74178
2.73125
2.71491
2.69579
2.6738
2.64978
2.62381
2.5967
2.56932
2.54175
2.51354
2.48441
2.45537
2.42791
2.40308
2.38062
2.3575
2.33114
2.30545
2.28217
2.25877
2.23548
2.2121
2.1875
2.16096
2.13339
2.10661
2.08135
2.0574
2.03386
2.00962
1.98348
1.95576
1.92925
1.9058
1.88475
1.86461
1.84451
1.82396
1.80231
1.77977
1.75913
1.74125
1.72489
1.70945
1.69435
1.67874
1.66318
1.64848
1.63375
1.62006
1.60884
1.59952
1.59127
1.58293
1.57237
1.55839
1.54439
1.53106
1.51594
1.50192
1.48915
1.48108
1.47343
1.48042
1.51495
1.59523
1.67995
1.73286
1.77451
1.8398
1.91013
1.96425
2.00229
2.02469
2.04336
2.04223
2.03318
2.02509
2.02192
2.01921
2.01312
2.00754
2.00264
1.99574
1.99043
1.99004
1.99013
1.98933
1.98557
1.97834
1.96069
1
2.00434
2.6846
2.7488
2.73565
2.72763
2.71472
2.69849
2.67877
2.65668
2.63277
2.60715
2.58006
2.55212
2.5245
2.49825
2.47399
2.45156
2.42968
2.40692
2.3816
2.35372
2.32784
2.30514
2.28166
2.25665
2.23039
2.20164
2.17088
2.14091
2.11417
2.09025
2.06758
2.04437
2.0189
1.99007
1.95941
1.93142
1.90857
1.88949
1.872
1.85414
1.83316
1.80798
1.78212
1.76027
1.74229
1.72627
1.71219
1.69957
1.6869
1.67192
1.65344
1.63522
1.6207
1.60913
1.59921
1.59072
1.58305
1.57496
1.56556
1.55225
1.53291
1.51378
1.49814
1.48674
1.4788
1.47033
1.46117
1.45847
1.47813
1.55384
1.68414
1.83408
1.95461
2.04128
2.11143
2.13097
2.11238
2.09371
2.06643
2.04272
2.0312
2.0246
2.0215
2.0183
2.01346
2.00991
2.00494
2.00158
2.00065
1.99928
1.99622
1.99043
1.98192
1.96331
)
;

boundaryField
{
    inlet
    {
        type            fixedValue;
        value           uniform 1;
    }
    outlet
    {
        type            inletOutlet;
        inletValue      uniform 1;
        value           nonuniform List<scalar> 
32
(
1.97573
1.96727
1.94767
1.9167
1.88111
1.84812
1.82623
1.80942
1.79902
1.78502
1.76653
1.75262
1.74222
1.73404
1.72689
1.72026
1.70997
1.69832
1.71241
1.78107
1.85828
1.87953
1.87194
1.86319
1.85001
1.84859
1.86553
1.89276
1.92462
1.94859
1.95965
1.96234
)
;
    }
    bottom
    {
        type            symmetryPlane;
    }
    top
    {
        type            symmetryPlane;
    }
    obstacle
    {
        type            zeroGradient;
    }
    defaultFaces
    {
        type            empty;
    }
}


// ************************************************************************* //
