/*--------------------------------*- C++ -*----------------------------------*\
  =========                 |
  \\      /  F ield         | OpenFOAM: The Open Source CFD Toolbox
   \\    /   O peration     | Website:  https://openfoam.org
    \\  /    A nd           | Version:  7
     \\/     M anipulation  |
\*---------------------------------------------------------------------------*/
FoamFile
{
    version     2.0;
    format      ascii;
    class       volVectorField;
    location    "3.9";
    object      U;
}
// * * * * * * * * * * * * * * * * * * * * * * * * * * * * * * * * * * * * * //

dimensions      [0 1 -1 0 0 0 0];

internalField   nonuniform List<vector> 
4032
(
(3 1.93351e-17 0)
(3 -1.37575e-16 0)
(3 -2.09665e-16 0)
(3 -1.91973e-16 0)
(3 -4.32837e-16 0)
(3 -5.40747e-16 0)
(3 -4.7157e-16 0)
(3 -1.9621e-16 0)
(3 -1.26034e-16 0)
(3 -3.96754e-17 0)
(3 -3.48651e-16 0)
(2.91385 0.00308437 0)
(0.994776 0.0167483 0)
(0.706991 0.0194759 0)
(0.654537 0.0239124 0)
(0.594454 0.0254194 0)
(0.534787 0.0267736 0)
(0.472897 0.0283306 0)
(0.408682 0.030083 0)
(0.341764 0.0318911 0)
(0.272351 0.0335471 0)
(0.199861 0.0357648 0)
(0.123473 0.0374449 0)
(0.0451732 0.041344 0)
(3 1.12581e-16 0)
(3 -6.2399e-16 0)
(3 -6.7563e-16 0)
(3 -6.13831e-16 0)
(3 -9.40933e-16 0)
(3 -6.94323e-16 0)
(3 3.73063e-17 0)
(3 1.75087e-16 0)
(3 -1.64563e-16 0)
(3 -3.11776e-16 0)
(3 -4.08959e-16 0)
(2.92498 0.020819 0)
(1.00334 0.0765656 0)
(0.695682 0.067945 0)
(0.641522 0.0719899 0)
(0.582837 0.0767624 0)
(0.523707 0.0815547 0)
(0.46195 0.0869062 0)
(0.397588 0.0926239 0)
(0.330517 0.0983801 0)
(0.261267 0.103366 0)
(0.189925 0.109973 0)
(0.115653 0.114897 0)
(0.0417032 0.124914 0)
(3 -8.23552e-18 0)
(3 -1.89028e-16 0)
(3 -1.76128e-16 0)
(3 -3.70108e-16 0)
(3 -3.18603e-16 0)
(3 1.12433e-16 0)
(3 1.84918e-16 0)
(3 -4.79743e-16 0)
(3 -3.49367e-16 0)
(3 -5.39735e-16 0)
(3 -3.08327e-16 0)
(2.96791 0.0287938 0)
(1.04362 0.138414 0)
(0.713368 0.115878 0)
(0.658679 0.122404 0)
(0.598136 0.130376 0)
(0.537282 0.138528 0)
(0.474298 0.147592 0)
(0.408868 0.157132 0)
(0.340524 0.166634 0)
(0.269224 0.174358 0)
(0.195407 0.184284 0)
(0.118015 0.190929 0)
(0.0421848 0.204267 0)
(3 -2.97437e-17 0)
(3 3.64992e-16 0)
(3 4.7967e-16 0)
(3 4.95835e-16 0)
(3 8.15016e-16 0)
(3 8.69197e-16 0)
(3 3.90129e-16 0)
(3 -2.51924e-16 0)
(3 -3.57626e-16 0)
(3 -2.9183e-16 0)
(3 -1.10339e-15 0)
(3.0057 0.00437017 0)
(1.12196 0.182363 0)
(0.741257 0.1546 0)
(0.689033 0.168136 0)
(0.630665 0.180135 0)
(0.570574 0.191659 0)
(0.508108 0.204783 0)
(0.442236 0.219193 0)
(0.371833 0.234772 0)
(0.295954 0.248249 0)
(0.216073 0.264095 0)
(0.130862 0.274383 0)
(0.046041 0.290327 0)
(3 -1.60755e-17 0)
(3 2.54089e-16 0)
(3 5.3061e-16 0)
(3 1.07738e-15 0)
(3 1.15721e-15 0)
(3 9.06231e-16 0)
(3 4.68318e-16 0)
(3 8.12592e-16 0)
(3 3.87541e-16 0)
(3 6.24717e-18 0)
(3 -6.77904e-16 0)
(3.00032 1.76582e-05 0)
(1.23916 0.226856 0)
(0.74905 0.199157 0)
(0.691889 0.217697 0)
(0.637283 0.233956 0)
(0.580448 0.248761 0)
(0.522003 0.266274 0)
(0.460285 0.28612 0)
(0.394384 0.308494 0)
(0.321569 0.327933 0)
(0.242564 0.350136 0)
(0.151493 0.367429 0)
(0.056058 0.390185 0)
(3 7.1385e-18 0)
(3 -1.40469e-16 0)
(3 -2.72288e-16 0)
(3 -4.85962e-16 0)
(3 -6.52862e-16 0)
(3 -5.5704e-16 0)
(3 -7.1411e-16 0)
(3 -1.49177e-16 0)
(3 2.94132e-16 0)
(3 6.91792e-17 0)
(3 1.39913e-16 0)
(3 -5.62177e-08 0)
(1.42848 0.277005 0)
(0.766605 0.2499 0)
(0.693343 0.262753 0)
(0.643896 0.280673 0)
(0.593685 0.297707 0)
(0.544003 0.318807 0)
(0.490511 0.343835 0)
(0.430776 0.374968 0)
(0.357768 0.407108 0)
(0.272144 0.445048 0)
(0.170414 0.480048 0)
(0.0572217 0.511941 0)
(3 -9.0302e-17 0)
(3 -4.27573e-16 0)
(3 -6.58528e-16 0)
(3 -1.08185e-15 0)
(3 -1.08353e-15 0)
(3 -1.14039e-15 0)
(3 -1.005e-15 0)
(3 -9.94943e-16 0)
(3 -8.48933e-16 0)
(3 -2.54566e-16 0)
(3 1.3246e-15 0)
(3 -4.28183e-08 0)
(1.71202 0.328793 0)
(0.798752 0.31639 0)
(0.695437 0.311822 0)
(0.64393 0.326317 0)
(0.595107 0.343198 0)
(0.550963 0.367548 0)
(0.505425 0.399492 0)
(0.4575 0.442235 0)
(0.398496 0.491159 0)
(0.328756 0.544136 0)
(0.237096 0.596635 0)
(0.10275 0.657633 0)
(3 -3.00164e-16 0)
(3 -9.20461e-17 0)
(3 9.65836e-17 0)
(3 3.73989e-16 0)
(3 5.92012e-16 0)
(3 3.54022e-16 0)
(3 4.62245e-16 0)
(3 -1.2574e-16 0)
(3 -4.39535e-16 0)
(3 -1.64341e-16 0)
(3 4.80077e-16 0)
(3 -8.37467e-09 0)
(2.13034 0.364726 0)
(0.861193 0.40236 0)
(0.721277 0.372591 0)
(0.66997 0.381382 0)
(0.62083 0.393202 0)
(0.577568 0.415039 0)
(0.537474 0.449172 0)
(0.498678 0.49765 0)
(0.455952 0.558624 0)
(0.395095 0.641259 0)
(0.276838 0.75867 0)
(0.152324 0.923371 0)
(3 -5.18484e-17 0)
(3 -1.41764e-16 0)
(3 4.88764e-17 0)
(3 5.79266e-16 0)
(3 4.65524e-16 0)
(3 5.32409e-16 0)
(3 5.17493e-16 0)
(3 3.22188e-16 0)
(3 5.99106e-16 0)
(3 6.18854e-16 0)
(3 1.61554e-16 0)
(3 -7.94206e-10 0)
(2.72165 0.276196 0)
(1.00506 0.47979 0)
(0.810168 0.411185 0)
(0.756452 0.41937 0)
(0.696048 0.437259 0)
(0.642024 0.459781 0)
(0.597533 0.494174 0)
(0.560076 0.545735 0)
(0.527259 0.623167 0)
(0.495478 0.748861 0)
(0.464755 0.922567 0)
(0.576183 1.19895 0)
(3 1.64392e-16 0)
(3 1.46196e-16 0)
(3 -3.67e-18 0)
(3 -1.06587e-16 0)
(3 -5.22437e-16 0)
(3 -4.93286e-16 0)
(3 -3.64453e-16 0)
(3 1.89214e-16 0)
(3 6.88673e-16 0)
(3 9.2469e-18 0)
(3 3.47315e-16 0)
(3 -2.6967e-11 0)
(3.07078 0.0326708 0)
(1.23808 0.470419 0)
(0.882641 0.451534 0)
(0.839315 0.48168 0)
(0.785229 0.495796 0)
(0.729587 0.513858 0)
(0.680021 0.544267 0)
(0.639532 0.593956 0)
(0.620423 0.678027 0)
(0.620753 0.814133 0)
(0.684497 0.965297 0)
(0.969158 1.13674 0)
(3 2.04079e-18 0)
(3 6.73517e-16 0)
(3 8.93942e-16 0)
(3 5.00536e-16 0)
(3 2.93677e-16 0)
(3 -2.5129e-16 0)
(3 -4.72148e-16 0)
(3 -2.44965e-16 0)
(3 -1.3174e-16 0)
(3 1.29991e-16 0)
(3 3.44163e-16 0)
(3 -4.28306e-13 0)
(3.00612 4.07433e-05 0)
(1.46911 0.464021 0)
(0.879815 0.515585 0)
(0.834485 0.536471 0)
(0.801849 0.556469 0)
(0.774152 0.578884 0)
(0.745274 0.607812 0)
(0.71884 0.648056 0)
(0.71977 0.719545 0)
(0.747455 0.833807 0)
(0.86956 0.959019 0)
(1.17999 1.0636 0)
(3 -1.96687e-16 0)
(3 2.60936e-16 0)
(3 4.43082e-16 0)
(3 3.91087e-16 0)
(3 2.22731e-16 0)
(3 -1.04127e-16 0)
(3 -1.53867e-17 0)
(3 -1.02179e-16 0)
(3 -9.54555e-16 0)
(3 -7.38967e-16 0)
(3 -2e-16 0)
(3 -2.73282e-15 0)
(3.00003 -1.51985e-06 0)
(2.00826 0.492964 0)
(0.933522 0.582377 0)
(0.854312 0.561811 0)
(0.838902 0.585153 0)
(0.826207 0.612001 0)
(0.814888 0.645759 0)
(0.804729 0.682888 0)
(0.816919 0.744252 0)
(0.865564 0.83374 0)
(1.00849 0.936604 0)
(1.27646 1.00306 0)
(3 -2.38506e-16 0)
(3 -4.22355e-16 0)
(3 -9.03275e-16 0)
(3 -7.84201e-16 0)
(3 -7.53369e-16 0)
(3 -9.54068e-16 0)
(3 -3.4457e-16 0)
(3 -1.34027e-17 0)
(3 -4.396e-16 0)
(3 -1.42493e-15 0)
(3 -1.3268e-15 0)
(3 -4.19015e-16 0)
(3 -1.75625e-06 0)
(2.81834 0.285922 0)
(1.11554 0.631917 0)
(0.92835 0.57485 0)
(0.903473 0.600823 0)
(0.887515 0.633436 0)
(0.882429 0.672715 0)
(0.886316 0.71298 0)
(0.906245 0.764606 0)
(0.96813 0.830739 0)
(1.10474 0.902408 0)
(1.31789 0.943619 0)
(3 2.31362e-16 0)
(3 1.59849e-16 0)
(3 -4.00303e-16 0)
(3 -8.30884e-16 0)
(3 -1.01685e-15 0)
(3 -6.3222e-16 0)
(3 -5.89372e-16 0)
(3 -4.37978e-16 0)
(3 -1.90449e-16 0)
(3 -2.60746e-16 0)
(3 -1.23931e-15 0)
(3 8.64715e-17 0)
(3 -3.61206e-07 0)
(3.06753 0.0188852 0)
(1.44376 0.620138 0)
(0.995821 0.653859 0)
(0.948339 0.654168 0)
(0.928657 0.672621 0)
(0.931894 0.702612 0)
(0.950611 0.739424 0)
(0.984592 0.781138 0)
(1.05522 0.830868 0)
(1.17795 0.879975 0)
(1.34973 0.905253 0)
(3 9.50557e-17 0)
(3 2.34101e-16 0)
(3 2.33755e-16 0)
(3 -1.2303e-16 0)
(3 -1.12706e-16 0)
(3 4.51176e-16 0)
(3 1.51216e-16 0)
(3 1.93803e-16 0)
(3 1.29927e-16 0)
(3 4.8789e-16 0)
(3 6.34742e-16 0)
(3 1.65678e-15 0)
(3 -3.53478e-08 0)
(3.00284 3.92378e-05 0)
(2.02881 0.594495 0)
(1.0585 0.722118 0)
(1.00621 0.695983 0)
(0.992978 0.694785 0)
(0.99473 0.714568 0)
(1.0144 0.745827 0)
(1.05531 0.784178 0)
(1.12629 0.822879 0)
(1.2311 0.854981 0)
(1.36844 0.868895 0)
(3 -2.35905e-16 0)
(3 -3.91409e-16 0)
(3 -3.70798e-16 0)
(3 1.78123e-16 0)
(3 4.36046e-16 0)
(3 1.95833e-16 0)
(3 1.37592e-16 0)
(3 5.54412e-16 0)
(3 4.83405e-16 0)
(3 3.60823e-16 0)
(3 6.22479e-16 0)
(3 1.10292e-15 0)
(3 -1.0543e-09 0)
(3.00001 -2.26866e-07 0)
(2.96898 0.200105 0)
(1.29252 0.691859 0)
(1.08002 0.713807 0)
(1.08356 0.717409 0)
(1.08011 0.739056 0)
(1.08874 0.76616 0)
(1.12214 0.79443 0)
(1.18592 0.825754 0)
(1.27471 0.84779 0)
(1.38866 0.855435 0)
(3 7.66875e-17 0)
(3 2.86234e-16 0)
(3 3.96669e-16 0)
(3 4.85328e-16 0)
(3 1.12528e-15 0)
(3 1.34801e-15 0)
(3 1.44841e-15 0)
(3 1.10118e-15 0)
(3 1.19975e-15 0)
(3 1.39995e-15 0)
(3 9.72802e-16 0)
(3 5.48276e-16 0)
(3 -2.14437e-12 0)
(3 -3.99465e-07 0)
(3.03716 0.00476033 0)
(1.58962 0.657205 0)
(1.09813 0.756399 0)
(1.10704 0.763015 0)
(1.11391 0.780527 0)
(1.13774 0.794491 0)
(1.17553 0.808463 0)
(1.23311 0.822753 0)
(1.31015 0.834747 0)
(1.40734 0.838568 0)
(3 -4.88158e-17 0)
(3 3.96852e-16 0)
(3 4.89145e-16 0)
(3 1.27836e-16 0)
(3 1.0212e-15 0)
(3 1.28349e-15 0)
(3 9.52536e-16 0)
(3 4.56574e-16 0)
(3 4.91877e-16 0)
(3 8.20301e-16 0)
(3 1.36044e-15 0)
(3 1.31625e-15 0)
(3 -1.36246e-15 0)
(3 -7.39566e-08 0)
(3.00064 2.44526e-05 0)
(2.43388 0.493765 0)
(1.21309 0.787762 0)
(1.13243 0.789929 0)
(1.14652 0.792696 0)
(1.17426 0.803287 0)
(1.21504 0.81657 0)
(1.26947 0.828998 0)
(1.34093 0.837504 0)
(1.42331 0.839353 0)
(3 4.2228e-17 0)
(3 -1.08046e-16 0)
(3 -1.73964e-16 0)
(3 6.69899e-17 0)
(3 -3.44287e-16 0)
(3 -1.00142e-15 0)
(3 -9.61923e-16 0)
(3 -8.41031e-16 0)
(3 -3.39867e-16 0)
(3 1.60391e-16 0)
(3 4.50277e-16 0)
(3 5.05964e-16 0)
(3 5.86273e-16 0)
(3 -2.21074e-09 0)
(3.00002 -8.35345e-06 0)
(3.06142 0.0635898 0)
(1.58193 0.775325 0)
(1.18397 0.787208 0)
(1.19846 0.794927 0)
(1.21904 0.806773 0)
(1.25549 0.817386 0)
(1.30468 0.826523 0)
(1.36838 0.832145 0)
(1.43962 0.832182 0)
(3 -1.10695e-16 0)
(3 -4.04295e-16 0)
(3 -6.17624e-16 0)
(3 -2.57995e-16 0)
(3 -5.66241e-16 0)
(3 -1.61048e-15 0)
(3 -1.58199e-15 0)
(3 -1.26782e-15 0)
(3 -6.60543e-16 0)
(3 -9.27242e-17 0)
(3 -8.05669e-17 0)
(3 -5.54163e-16 0)
(3 -4.49815e-16 0)
(3 -6.38407e-12 0)
(3 -2.10159e-06 0)
(3.00705 0.0012375 0)
(2.34752 0.613456 0)
(1.27625 0.853504 0)
(1.22574 0.838296 0)
(1.25468 0.834989 0)
(1.28571 0.838144 0)
(1.33119 0.840875 0)
(1.38736 0.842076 0)
(1.4517 0.838237 0)
(3 -1.1952e-16 0)
(3 -4.78186e-16 0)
(3 -8.90786e-16 0)
(3 -1.03061e-15 0)
(3 -4.07531e-16 0)
(3 -3.71297e-16 0)
(3 -3.94873e-16 0)
(3 -3.39419e-16 0)
(3 -4.12179e-16 0)
(3 -5.55685e-16 0)
(3 -2.99692e-16 0)
(3 -1.32436e-15 0)
(3 -2.31919e-15 0)
(3 2.5509e-14 0)
(3 -1.79964e-07 0)
(3.00002 7.27684e-06 0)
(3.04738 0.101884 0)
(1.65753 0.828661 0)
(1.27341 0.838509 0)
(1.30408 0.836999 0)
(1.32647 0.838851 0)
(1.36583 0.83846 0)
(1.41361 0.837667 0)
(1.47142 0.832823 0)
(3 3.98424e-18 0)
(3 -9.90524e-17 0)
(3 -1.62951e-16 0)
(3 -1.9446e-16 0)
(3 -4.07316e-16 0)
(3 -2.05311e-16 0)
(3 -9.55514e-17 0)
(3 -1.67814e-16 0)
(3 -7.26642e-16 0)
(3 -1.2286e-15 0)
(3 -1.28617e-15 0)
(3 -2.31097e-15 0)
(3 -2.64997e-15 0)
(3 2.20544e-14 0)
(3 -2.23402e-09 0)
(3 -1.10116e-07 0)
(3.00867 0.00315877 0)
(2.46851 0.606335 0)
(1.37735 0.895874 0)
(1.33139 0.877789 0)
(1.361 0.867046 0)
(1.39283 0.863164 0)
(1.43352 0.858162 0)
(1.48353 0.849856 0)
(3 -5.54751e-17 0)
(3 -5.71699e-17 0)
(3 1.06022e-16 0)
(3 9.61204e-17 0)
(3 2.89559e-17 0)
(3 1.25947e-16 0)
(3 8.5837e-17 0)
(3 -8.08266e-17 0)
(3 -1.79233e-16 0)
(3 -1.35057e-15 0)
(3 -1.88303e-15 0)
(3 -1.31946e-15 0)
(3 -1.04305e-15 0)
(3 2.61565e-15 0)
(3 -5.21359e-12 0)
(3 -2.73198e-08 0)
(3.00003 3.32588e-05 0)
(3.04496 0.0812191 0)
(1.80338 0.823883 0)
(1.37173 0.888318 0)
(1.40895 0.879658 0)
(1.43481 0.872624 0)
(1.46834 0.862434 0)
(1.50934 0.851105 0)
(3 1.94796e-18 0)
(3 1.5763e-17 0)
(3 1.59586e-16 0)
(3 1.72275e-17 0)
(3 2.55345e-16 0)
(3 1.02098e-15 0)
(3 9.49934e-16 0)
(3 9.17696e-16 0)
(3 3.50197e-16 0)
(3 -2.05475e-16 0)
(3 -5.07294e-16 0)
(3 6.22567e-16 0)
(3 9.28072e-16 0)
(3 7.18735e-16 0)
(3 -2.08971e-15 0)
(3 -2.56383e-09 0)
(3 1.703e-08 0)
(3.00451 0.00325289 0)
(2.66875 0.476209 0)
(1.54677 0.931962 0)
(1.4274 0.909046 0)
(1.46123 0.900596 0)
(1.49185 0.888962 0)
(1.52716 0.875367 0)
(3 1.39041e-16 0)
(3 1.86382e-16 0)
(3 1.02091e-16 0)
(3 3.41069e-16 0)
(3 2.61019e-16 0)
(3 1.4987e-16 0)
(3 -2.67252e-16 0)
(3 -6.4832e-16 0)
(3 -8.33388e-16 0)
(3 1.09459e-16 0)
(3 1.14035e-15 0)
(3 1.39408e-15 0)
(3 1.44508e-15 0)
(3 1.50797e-15 0)
(3 2.07512e-15 0)
(3 -1.02689e-10 0)
(3 -1.01215e-10 0)
(3.00001 2.6501e-05 0)
(3.0296 0.0405689 0)
(2.07878 0.782748 0)
(1.49009 0.919946 0)
(1.49859 0.910926 0)
(1.52744 0.896199 0)
(1.55751 0.883515 0)
(3 1.07876e-16 0)
(3 6.00602e-17 0)
(3 2.56646e-16 0)
(3 4.23382e-16 0)
(3 8.35758e-17 0)
(3 -7.43274e-16 0)
(3 -6.27318e-16 0)
(3 -2.25214e-16 0)
(3 -7.73595e-16 0)
(3 -5.74979e-16 0)
(3 2.23487e-16 0)
(3 9.28833e-16 0)
(3 1.14324e-15 0)
(3 1.71947e-15 0)
(3 2.64294e-15 0)
(3 -9.09679e-13 0)
(3 -3.2209e-11 0)
(3 1.61386e-08 0)
(3.00103 0.00168632 0)
(2.88244 0.2672 0)
(1.77435 0.889398 0)
(1.51995 0.932154 0)
(1.55434 0.920321 0)
(1.58477 0.907504 0)
(3 4.68981e-17 0)
(3 -1.32267e-18 0)
(3 2.51238e-16 0)
(3 7.50213e-17 0)
(3 -9.34073e-17 0)
(3 -1.35077e-16 0)
(3 3.06606e-16 0)
(3 6.08504e-16 0)
(3 4.95935e-16 0)
(3 -5.62158e-16 0)
(3 -1.64259e-16 0)
(3 1.70011e-16 0)
(3 1.18272e-15 0)
(3 1.0012e-15 0)
(3 1.63638e-15 0)
(3 1.56455e-17 0)
(3 -4.3137e-12 0)
(3 -1.79008e-12 0)
(3 7.04568e-06 0)
(3.008 0.0168999 0)
(2.48028 0.595632 0)
(1.63796 0.95438 0)
(1.56313 0.941108 0)
(1.59847 0.927663 0)
(3 1.13751e-17 0)
(3 4.89564e-17 0)
(3 -2.31942e-16 0)
(3 -2.50165e-16 0)
(3 9.329e-18 0)
(3 2.99453e-16 0)
(3 2.41841e-16 0)
(3 2.33703e-16 0)
(3 2.55166e-16 0)
(3 -6.98292e-17 0)
(3 -5.50623e-16 0)
(3 -6.3814e-16 0)
(3 -9.13987e-16 0)
(3 -2.61044e-16 0)
(3 1.46996e-16 0)
(3 7.97e-16 0)
(3 -1.68951e-13 0)
(3 -4.7133e-13 0)
(3 3.4429e-09 0)
(3.00003 0.00041294 0)
(2.99482 0.0880273 0)
(2.10667 0.793445 0)
(1.62314 0.946386 0)
(1.61919 0.942046 0)
(3 -1.67463e-16 0)
(3 2.3841e-16 0)
(3 -1.7206e-16 0)
(3 -6.24873e-16 0)
(3 -4.97448e-16 0)
(3 -4.7016e-16 0)
(3 -2.38662e-16 0)
(3 -2.37355e-16 0)
(3 -4.00387e-16 0)
(3 -7.77403e-17 0)
(3 -1.19736e-16 0)
(3 -6.54137e-16 0)
(3 -1.08708e-15 0)
(3 -7.15088e-16 0)
(3 -3.74564e-16 0)
(3 2.782e-16 0)
(3 -1.3331e-15 0)
(3 -1.52791e-13 0)
(3 7.58332e-13 0)
(3 7.81998e-07 0)
(3.00089 0.0045441 0)
(2.83487 0.29213 0)
(1.90301 0.882271 0)
(1.65498 0.955459 0)
(3 5.88067e-17 0)
(3 3.01391e-17 0)
(3 -1.93323e-16 0)
(3 -3.80046e-16 0)
(3 -2.40381e-16 0)
(3 -4.03087e-16 0)
(3 -3.81154e-16 0)
(3 -3.92334e-16 0)
(3 -4.41192e-16 0)
(3 1.50853e-16 0)
(3 1.46457e-16 0)
(3 -2.2858e-16 0)
(3 -5.50691e-16 0)
(3 -9.26686e-16 0)
(3 -7.74423e-16 0)
(3 -3.49335e-16 0)
(3 -2.10502e-16 0)
(3 -1.54587e-14 0)
(3 -1.60099e-14 0)
(3 4.39331e-10 0)
(3 3.33473e-05 0)
(3.00079 0.0219382 0)
(2.55901 0.522478 0)
(1.81813 0.935266 0)
(3 -8.6746e-17 0)
(3 -4.46602e-16 0)
(3 -6.96267e-17 0)
(3 1.60889e-16 0)
(3 1.81061e-17 0)
(3 1.81109e-16 0)
(3 3.47717e-16 0)
(3 3.67912e-16 0)
(3 2.11976e-16 0)
(3 -9.0314e-17 0)
(3 -2.67838e-16 0)
(3 -1.23808e-15 0)
(3 -1.69863e-15 0)
(3 -1.64203e-15 0)
(3 -1.04553e-15 0)
(3 -6.90651e-16 0)
(3 -3.6473e-16 0)
(3 -1.96342e-15 0)
(3 -6.55098e-15 0)
(3 7.121e-14 0)
(3 3.09718e-08 0)
(2.99994 0.000538839 0)
(2.98136 0.0679145 0)
(2.32344 0.6948 0)
(3 4.21147e-17 0)
(3 -1.48515e-16 0)
(3 5.17635e-16 0)
(3 5.22835e-16 0)
(3 -3.01707e-16 0)
(3 2.47499e-16 0)
(3 5.62126e-16 0)
(3 4.49571e-16 0)
(3 3.13742e-16 0)
(3 -9.82722e-17 0)
(3 -2.47826e-16 0)
(3 -6.82469e-16 0)
(3 -1.0144e-15 0)
(3 -4.20788e-16 0)
(3 -5.16094e-16 0)
(3 -2.26514e-16 0)
(3 -6.02362e-16 0)
(3 -6.65691e-16 0)
(3 -1.62399e-15 0)
(3 -1.26468e-15 0)
(3 1.43408e-11 0)
(3 1.19569e-06 0)
(2.99977 0.00304506 0)
(2.90161 0.177681 0)
(3 2.37452e-16 0)
(3 5.97528e-17 0)
(3 -2.53484e-16 0)
(3 -4.36337e-16 0)
(3 -3.47557e-16 0)
(3 -4.37122e-16 0)
(3 -3.47678e-16 0)
(3 -2.68459e-16 0)
(3 -4.39621e-16 0)
(3 -5.33771e-16 0)
(3 -9.53057e-16 0)
(3 -6.02822e-16 0)
(3 -4.65152e-16 0)
(3 3.44199e-16 0)
(3 -9.76527e-17 0)
(3 -6.37002e-16 0)
(3 -6.66886e-16 0)
(3 -1.02564e-15 0)
(3 -8.24169e-16 0)
(3 -3.88139e-16 0)
(3 1.74539e-15 0)
(3 1.09046e-09 0)
(3 1.39577e-05 0)
(2.99651 0.0131393 0)
(3 -7.54355e-18 0)
(3 2.81451e-17 0)
(3 -6.39836e-16 0)
(3 -6.30664e-16 0)
(3 -3.63536e-16 0)
(3 -7.32545e-16 0)
(3 -5.64515e-16 0)
(3 -3.0436e-16 0)
(3 -2.6021e-16 0)
(3 -5.72466e-16 0)
(3 -9.38434e-16 0)
(3 -6.41163e-16 0)
(3 1.76641e-16 0)
(3 -2.22286e-16 0)
(3 -3.37361e-16 0)
(3 -2.99299e-16 0)
(3 -8.06165e-16 0)
(3 -6.25068e-16 0)
(3 -4.40275e-16 0)
(3 -1.53536e-16 0)
(3 -3.69082e-16 0)
(3 1.50962e-13 0)
(3 2.02954e-08 0)
(2.99996 0.000130503 0)
(3 -6.2291e-17 0)
(3 1.49848e-17 0)
(3 -1.46232e-16 0)
(3 -1.04461e-16 0)
(3 5.19558e-17 0)
(3 -1.26819e-17 0)
(3 -5.61563e-16 0)
(3 -1.24715e-15 0)
(3 -1.1713e-15 0)
(3 -5.61644e-16 0)
(3 -3.66686e-16 0)
(3 -6.25778e-17 0)
(3 5.22618e-16 0)
(3 4.99111e-16 0)
(3 1.08459e-16 0)
(3 -2.19645e-16 0)
(3 -3.61087e-16 0)
(3 6.1825e-17 0)
(3 2.73119e-16 0)
(3 3.99403e-16 0)
(3 3.43453e-16 0)
(3 3.86219e-16 0)
(3 8.40437e-12 0)
(3 1.41224e-07 0)
(3 -2.06901e-16 0)
(3 1.01496e-17 0)
(3 2.20151e-16 0)
(3 2.24815e-16 0)
(3 2.7077e-16 0)
(3 4.74882e-16 0)
(3 9.40588e-17 0)
(3 -8.19312e-16 0)
(3 -9.5043e-16 0)
(3 -1.03183e-15 0)
(3 -7.46509e-16 0)
(3 -2.53296e-16 0)
(3 3.05941e-16 0)
(3 5.9029e-16 0)
(3 1.989e-16 0)
(3 -5.59589e-16 0)
(3 -1.31157e-16 0)
(3 -2.45007e-17 0)
(3 4.26705e-16 0)
(3 9.46053e-16 0)
(3 1.21825e-15 0)
(3 5.08671e-16 0)
(3 1.18595e-15 0)
(3 7.11914e-11 0)
(3 7.09986e-17 0)
(3 2.79416e-16 0)
(3 9.05131e-16 0)
(3 1.08214e-15 0)
(3 7.94091e-16 0)
(3 6.805e-16 0)
(3 9.67019e-17 0)
(3 -1.81675e-16 0)
(3 -4.03168e-16 0)
(3 -2.67197e-16 0)
(3 -3.23887e-16 0)
(3 -2.71551e-16 0)
(3 -5.08681e-17 0)
(3 7.22147e-17 0)
(3 -6.67231e-17 0)
(3 -3.47597e-16 0)
(3 -6.28959e-16 0)
(3 -5.34499e-16 0)
(3 2.19211e-17 0)
(3 -1.81463e-16 0)
(3 -1.87671e-16 0)
(3 4.01202e-16 0)
(3 -1.19353e-16 0)
(3 6.29486e-15 0)
(3 2.36616e-16 0)
(3 3.23916e-16 0)
(3 7.08311e-16 0)
(3 6.51492e-16 0)
(3 7.72478e-16 0)
(3 5.8083e-16 0)
(3 -1.05715e-16 0)
(3 -3.7229e-16 0)
(3 -2.12396e-16 0)
(3 -1.76352e-16 0)
(3 -2.59868e-16 0)
(3 -8.33126e-17 0)
(3 2.35095e-16 0)
(3 2.40111e-16 0)
(3 5.40508e-16 0)
(3 5.24781e-16 0)
(3 -2.50049e-16 0)
(3 -5.87502e-16 0)
(3 -7.64981e-16 0)
(3 -1.1303e-15 0)
(3 -8.45493e-16 0)
(3 -5.12006e-17 0)
(3 4.81744e-17 0)
(3 4.10734e-16 0)
(3 9.27664e-18 0)
(3 -1.75902e-16 0)
(3 -2.40992e-17 0)
(3 -1.23174e-16 0)
(3 3.3829e-16 0)
(3 7.2483e-16 0)
(3 8.56953e-16 0)
(3 1.11159e-15 0)
(3 1.03406e-15 0)
(3 5.82744e-16 0)
(3 7.284e-16 0)
(3 1.35295e-15 0)
(3 1.41803e-15 0)
(3 3.17121e-16 0)
(3 -5.65191e-16 0)
(3 -4.4967e-16 0)
(3 7.68901e-17 0)
(3 -1.98992e-16 0)
(3 -5.38677e-16 0)
(3 -3.44316e-16 0)
(3 -4.55634e-16 0)
(3 -2.27381e-16 0)
(3 1.64371e-16 0)
(3 3.51683e-16 0)
(3 -1.26802e-16 0)
(3 5.4053e-17 0)
(3 1.60854e-16 0)
(3 2.76913e-16 0)
(3 8.0824e-16 0)
(3 1.03556e-15 0)
(3 1.28501e-15 0)
(3 9.27921e-16 0)
(3 7.20947e-16 0)
(3 1.0839e-15 0)
(3 1.28956e-15 0)
(3 1.6613e-15 0)
(3 1.6528e-15 0)
(3 9.69442e-16 0)
(3 2.62939e-16 0)
(3 -4.35453e-16 0)
(3 -2.78653e-16 0)
(3 -1.18336e-16 0)
(3 -1.83702e-16 0)
(3 -1.86532e-17 0)
(3 -8.90939e-17 0)
(3 2.05248e-16 0)
(3 2.37643e-16 0)
(3 -7.28353e-17 0)
(1.54865 1.21784 0)
(1.93749 1.56783 0)
(2.03324 1.37739 0)
(2.26111 0.716204 0)
(2.6404 0.299357 0)
(2.68929 -0.0553433 0)
(2.65584 -0.180974 0)
(2.53109 -0.224941 0)
(2.34281 -0.338954 0)
(2.35544 -0.446719 0)
(2.42995 -0.351131 0)
(2.48027 -0.206041 0)
(2.4588 -0.159208 0)
(2.43258 -0.120964 0)
(2.40319 -0.0833285 0)
(2.34884 -0.0691777 0)
(2.32036 -0.0627728 0)
(2.35845 -0.0430818 0)
(2.41058 -0.0268712 0)
(2.42133 -0.0233174 0)
(2.41554 -0.0173763 0)
(2.37973 -0.0109574 0)
(2.35944 -0.0109645 0)
(2.342 -0.0107023 0)
(2.35222 -0.00875183 0)
(2.38861 -0.00692621 0)
(2.4002 -0.00740259 0)
(2.04502 0.0159362 0)
(0.91111 0.0348444 0)
(0.702934 0.0210934 0)
(0.694864 0.00594071 0)
(0.710088 -0.0121611 0)
(0.737604 -0.0204813 0)
(0.766981 -0.0241493 0)
(0.799088 -0.0261656 0)
(0.83313 -0.0279535 0)
(0.867168 -0.0294025 0)
(0.899649 -0.0301043 0)
(0.931769 -0.0307428 0)
(0.966714 -0.0317076 0)
(1.00736 -0.0327868 0)
(1.05243 -0.0329911 0)
(1.09732 -0.0309718 0)
(1.13427 -0.0253685 0)
(1.16326 -0.0188194 0)
(1.19027 -0.0142496 0)
(1.22041 -0.0121933 0)
(1.25608 -0.0127261 0)
(1.29141 -0.0160676 0)
(1.3197 -0.0179946 0)
(1.34227 -0.0166022 0)
(1.36329 -0.0136745 0)
(1.38561 -0.0110676 0)
(1.41176 -0.00989372 0)
(1.4442 -0.0101662 0)
(1.47833 -0.0108945 0)
(1.50575 -0.0103613 0)
(1.52828 -0.00833713 0)
(1.54958 -0.00529818 0)
(1.57098 -0.00253191 0)
(1.59512 -0.00132131 0)
(1.62177 -0.00205186 0)
(1.64325 -0.00376691 0)
(1.66259 -0.00426482 0)
(1.68208 -0.00353046 0)
(1.70012 -0.000678159 0)
(1.71832 0.00263185 0)
(1.73738 0.0041703 0)
(1.75891 0.00452983 0)
(1.78372 0.00359712 0)
(1.80573 0.000973676 0)
(1.82484 -0.000696576 0)
(1.84341 -0.000354831 0)
(1.85809 0.00137215 0)
(1.86909 0.0041581 0)
(1.8812 0.00633601 0)
(1.89692 0.00689571 0)
(1.91429 0.00686532 0)
(1.93327 0.0062195 0)
(1.95229 0.00382094 0)
(1.96942 0.00255617 0)
(1.98378 0.00255762 0)
(1.99043 0.0041087 0)
(1.99721 0.00616678 0)
(2.01035 0.00670415 0)
(2.02688 0.00654626 0)
(2.04407 0.00659953 0)
(2.06148 0.0067687 0)
(2.07862 0.006963 0)
(2.09309 0.00737103 0)
(2.10073 0.00811544 0)
(2.10815 0.00883441 0)
(2.12272 0.00917306 0)
(2.13855 0.0093558 0)
(2.15681 0.0081304 0)
(2.18351 0.00655918 0)
(1.78404 1.0404 0)
(2.287 0.817704 0)
(2.44891 0.626752 0)
(2.61871 0.113353 0)
(2.71661 -0.316763 0)
(2.71373 -0.472786 0)
(2.74471 -0.563114 0)
(2.74544 -0.626748 0)
(2.73061 -0.601832 0)
(2.6574 -0.546823 0)
(2.55768 -0.420452 0)
(2.52845 -0.260066 0)
(2.50974 -0.214849 0)
(2.48813 -0.188696 0)
(2.468 -0.12582 0)
(2.44286 -0.0685268 0)
(2.42438 -0.0444123 0)
(2.43313 -0.0097745 0)
(2.44518 0.00636145 0)
(2.4379 0.00476204 0)
(2.43052 -0.00596838 0)
(2.423 -0.0320865 0)
(2.40756 -0.0391038 0)
(2.39688 -0.0235468 0)
(2.40268 0.00754657 0)
(2.41374 0.0168004 0)
(2.42161 0.00814122 0)
(2.1732 0.0976454 0)
(0.961432 0.139654 0)
(0.756834 0.031649 0)
(0.767647 -0.0320271 0)
(0.802553 -0.0530632 0)
(0.834273 -0.0515957 0)
(0.863095 -0.0494024 0)
(0.894726 -0.0469759 0)
(0.929507 -0.0466331 0)
(0.965389 -0.0462308 0)
(0.997164 -0.040716 0)
(1.02254 -0.0326905 0)
(1.04842 -0.0279674 0)
(1.07908 -0.0299868 0)
(1.11881 -0.0387118 0)
(1.16411 -0.0464322 0)
(1.20608 -0.0434088 0)
(1.23401 -0.0297631 0)
(1.25481 -0.0116741 0)
(1.27459 0.00266534 0)
(1.29408 0.00484142 0)
(1.32027 -0.00471832 0)
(1.35399 -0.0199003 0)
(1.38628 -0.027735 0)
(1.41117 -0.0248479 0)
(1.43223 -0.0149543 0)
(1.4541 -0.00326842 0)
(1.47568 0.00176961 0)
(1.49838 -0.00262163 0)
(1.52699 -0.0121899 0)
(1.55501 -0.0154549 0)
(1.57933 -0.0113794 0)
(1.60174 -0.0018113 0)
(1.62159 0.00786154 0)
(1.63892 0.0102476 0)
(1.65531 0.00614174 0)
(1.67502 -0.00300808 0)
(1.69661 -0.00844784 0)
(1.71711 -0.00799939 0)
(1.73743 -0.00270139 0)
(1.75677 0.00714533 0)
(1.77473 0.0157078 0)
(1.79228 0.0178366 0)
(1.80982 0.0144596 0)
(1.82959 0.00676857 0)
(1.8486 -0.000838024 0)
(1.86598 -0.00438546 0)
(1.88345 -0.00203078 0)
(1.89857 0.00752241 0)
(1.91115 0.018453 0)
(1.92281 0.0248015 0)
(1.93715 0.0244297 0)
(1.95385 0.0199869 0)
(1.97122 0.0121598 0)
(1.98643 0.00312463 0)
(2.00027 0.000459807 0)
(2.0132 0.00632188 0)
(2.0251 0.0149528 0)
(2.0369 0.0198092 0)
(2.05259 0.0194012 0)
(2.06945 0.0167414 0)
(2.08535 0.013343 0)
(2.1 0.011432 0)
(2.11073 0.0143374 0)
(2.11706 0.0229882 0)
(2.12459 0.0290235 0)
(2.13891 0.029823 0)
(2.15376 0.0270841 0)
(2.17973 0.0202013 0)
(1.65921 1.04201 0)
(2.05316 0.87234 0)
(2.34746 0.616412 0)
(2.52126 0.397747 0)
(2.59715 0.14873 0)
(2.64191 -0.0514289 0)
(2.69548 -0.170714 0)
(2.76185 -0.198433 0)
(2.82452 -0.301462 0)
(2.77542 -0.429541 0)
(2.74093 -0.429637 0)
(2.68592 -0.442466 0)
(2.65248 -0.430157 0)
(2.64982 -0.384531 0)
(2.64088 -0.303793 0)
(2.6374 -0.222842 0)
(2.62906 -0.187939 0)
(2.58349 -0.117252 0)
(2.52462 -0.0602459 0)
(2.49074 -0.0387518 0)
(2.47459 -0.0310186 0)
(2.48096 -0.0258993 0)
(2.50075 -0.0152607 0)
(2.49813 -0.012706 0)
(2.49264 -0.00586531 0)
(2.4782 0.00882474 0)
(2.47045 0.00847535 0)
(2.45656 0.0197309 0)
(1.20459 0.157924 0)
(0.931153 0.0213341 0)
(0.981411 -0.0643858 0)
(1.03534 -0.0739553 0)
(1.05989 -0.0591207 0)
(1.07936 -0.0507453 0)
(1.10292 -0.0517791 0)
(1.13103 -0.0629883 0)
(1.16427 -0.0779283 0)
(1.1975 -0.0867386 0)
(1.22125 -0.0847071 0)
(1.23804 -0.0770761 0)
(1.25498 -0.0656165 0)
(1.27498 -0.0579134 0)
(1.30242 -0.0587401 0)
(1.33693 -0.0660686 0)
(1.36802 -0.0692402 0)
(1.38831 -0.0640582 0)
(1.40424 -0.0496202 0)
(1.41481 -0.0298464 0)
(1.4301 -0.0180245 0)
(1.44967 -0.0186659 0)
(1.47465 -0.0293694 0)
(1.50414 -0.0400554 0)
(1.52804 -0.0420123 0)
(1.54661 -0.0387302 0)
(1.56336 -0.0288399 0)
(1.57843 -0.0161645 0)
(1.59673 -0.0108475 0)
(1.61681 -0.0129456 0)
(1.6421 -0.0163214 0)
(1.66618 -0.0155819 0)
(1.68528 -0.0128022 0)
(1.70149 -0.00452204 0)
(1.71155 0.00606225 0)
(1.72177 0.0106762 0)
(1.73748 0.00805856 0)
(1.75739 0.000807744 0)
(1.78034 -0.0030675 0)
(1.79982 -0.00170803 0)
(1.81864 0.00396345 0)
(1.83343 0.0147901 0)
(1.84252 0.0249734 0)
(1.85275 0.0270587 0)
(1.86809 0.0228073 0)
(1.88723 0.0149625 0)
(1.9092 0.00870744 0)
(1.92643 0.00815486 0)
(1.94341 0.0125859 0)
(1.95724 0.0227539 0)
(1.96454 0.0327919 0)
(1.97097 0.034813 0)
(1.98268 0.0295078 0)
(1.99849 0.0239956 0)
(2.01733 0.0169908 0)
(2.03446 0.0133593 0)
(2.05071 0.0154309 0)
(2.06368 0.0248379 0)
(2.07024 0.0357977 0)
(2.07653 0.0385566 0)
(2.08996 0.0352533 0)
(2.10534 0.0317827 0)
(2.12073 0.0301173 0)
(2.13543 0.0324895 0)
(2.14601 0.0414288 0)
(2.15204 0.0491703 0)
(2.16223 0.0459573 0)
(2.18231 0.0367602 0)
(1.59302 0.99352 0)
(1.89584 0.883355 0)
(2.16848 0.681869 0)
(2.33648 0.535457 0)
(2.43142 0.401485 0)
(2.54441 0.177819 0)
(2.6365 -0.0324634 0)
(2.68822 -0.170906 0)
(2.73546 -0.248074 0)
(2.7719 -0.338083 0)
(2.76221 -0.437775 0)
(2.74316 -0.459361 0)
(2.74422 -0.454424 0)
(2.74619 -0.458386 0)
(2.74743 -0.444157 0)
(2.74375 -0.405529 0)
(2.73569 -0.378799 0)
(2.68615 -0.296462 0)
(2.62548 -0.204798 0)
(2.58824 -0.156673 0)
(2.57102 -0.130628 0)
(2.56777 -0.0968748 0)
(2.57597 -0.0730483 0)
(2.56405 -0.0452023 0)
(2.54535 -0.0274154 0)
(2.52913 0.00211096 0)
(2.51937 -0.00586167 0)
(2.46505 -0.142024 0)
(1.73764 0.0160942 0)
(1.19443 0.0432416 0)
(1.22026 -0.0317827 0)
(1.29608 -0.109865 0)
(1.31945 -0.115164 0)
(1.3291 -0.0988327 0)
(1.33815 -0.0697579 0)
(1.3534 -0.0623359 0)
(1.37483 -0.0669044 0)
(1.40369 -0.0774111 0)
(1.42998 -0.0849436 0)
(1.4438 -0.0839991 0)
(1.45396 -0.0750318 0)
(1.45978 -0.0567644 0)
(1.47101 -0.0418366 0)
(1.48893 -0.0361978 0)
(1.51273 -0.0374471 0)
(1.53468 -0.0429694 0)
(1.55065 -0.0454327 0)
(1.56508 -0.0419018 0)
(1.57363 -0.028804 0)
(1.5824 -0.0132828 0)
(1.59814 -0.00623999 0)
(1.61782 -0.00657012 0)
(1.64101 -0.0147424 0)
(1.65914 -0.0222633 0)
(1.67493 -0.0246815 0)
(1.68982 -0.0213294 0)
(1.69949 -0.00953988 0)
(1.71241 0.00191941 0)
(1.73028 0.00539211 0)
(1.7496 0.00320634 0)
(1.76767 -0.00179059 0)
(1.78373 -0.00474429 0)
(1.79728 -0.00257139 0)
(1.80474 0.00744552 0)
(1.81169 0.01805 0)
(1.82619 0.0215228 0)
(1.84296 0.0192941 0)
(1.86078 0.0115638 0)
(1.87639 0.00457351 0)
(1.89051 0.000430734 0)
(1.9028 0.00218677 0)
(1.91269 0.0117007 0)
(1.92199 0.0245693 0)
(1.9357 0.0321219 0)
(1.95146 0.0325961 0)
(1.9682 0.0279831 0)
(1.98366 0.0220758 0)
(1.9965 0.016976 0)
(2.00446 0.0146968 0)
(2.00996 0.0183421 0)
(2.02004 0.0259501 0)
(2.03484 0.0328683 0)
(2.04961 0.0360995 0)
(2.06497 0.0359004 0)
(2.08004 0.034091 0)
(2.09384 0.033344 0)
(2.1025 0.0361141 0)
(2.10491 0.042029 0)
(2.11246 0.0460432 0)
(2.12732 0.0472118 0)
(2.14289 0.0476865 0)
(2.15895 0.0477575 0)
(2.17392 0.0495461 0)
(2.18317 0.0553032 0)
(2.18361 0.0605928 0)
(2.19464 0.051618 0)
(1.55902 0.927731 0)
(1.78737 0.860447 0)
(1.99998 0.746792 0)
(2.19544 0.590745 0)
(2.32824 0.424694 0)
(2.39885 0.345893 0)
(2.44267 0.248126 0)
(2.57085 0.0754025 0)
(2.63298 -0.0929073 0)
(2.66149 -0.17357 0)
(2.68456 -0.183975 0)
(2.68818 -0.214025 0)
(2.68667 -0.279769 0)
(2.70581 -0.341695 0)
(2.72664 -0.395902 0)
(2.75116 -0.448808 0)
(2.76478 -0.450376 0)
(2.74902 -0.426861 0)
(2.70827 -0.373259 0)
(2.67532 -0.314508 0)
(2.64835 -0.268127 0)
(2.62343 -0.198191 0)
(2.62509 -0.157631 0)
(2.61723 -0.111744 0)
(2.58827 -0.0800468 0)
(2.56919 -0.0678459 0)
(2.51258 -0.116404 0)
(2.26702 -0.378817 0)
(2.09094 -0.482388 0)
(1.46839 -0.164019 0)
(1.36074 -0.0484862 0)
(1.43469 -0.0519265 0)
(1.47643 -0.0913859 0)
(1.49997 -0.0959922 0)
(1.50711 -0.0861707 0)
(1.50495 -0.0674666 0)
(1.51577 -0.0635987 0)
(1.5342 -0.0679223 0)
(1.56053 -0.0805718 0)
(1.58025 -0.0870595 0)
(1.59118 -0.0838678 0)
(1.5979 -0.071612 0)
(1.59813 -0.0546365 0)
(1.60505 -0.0465192 0)
(1.6193 -0.0463394 0)
(1.63651 -0.0482747 0)
(1.6555 -0.049301 0)
(1.67052 -0.0476211 0)
(1.68372 -0.041277 0)
(1.69283 -0.0306525 0)
(1.70098 -0.0221042 0)
(1.71611 -0.020666 0)
(1.7329 -0.0226487 0)
(1.75079 -0.0256272 0)
(1.76635 -0.0259792 0)
(1.78037 -0.0233619 0)
(1.793 -0.0145827 0)
(1.80248 -0.00228429 0)
(1.81205 0.00460142 0)
(1.82666 0.00508503 0)
(1.8427 0.00461403 0)
(1.85843 0.00473772 0)
(1.87298 0.0060319 0)
(1.88524 0.0109839 0)
(1.89332 0.0213139 0)
(1.8992 0.0295771 0)
(1.90967 0.0298963 0)
(1.92302 0.0258585 0)
(1.9364 0.0202575 0)
(1.94979 0.0155484 0)
(1.96381 0.0142185 0)
(1.97777 0.0177675 0)
(1.98938 0.027631 0)
(1.9971 0.0397647 0)
(2.00483 0.0462458 0)
(2.01619 0.0453815 0)
(2.02859 0.039836 0)
(2.03957 0.0316023 0)
(2.04908 0.0251031 0)
(2.05981 0.0249682 0)
(2.072 0.0303116 0)
(2.08315 0.0381632 0)
(2.09352 0.045766 0)
(2.10502 0.0507518 0)
(2.11726 0.0530717 0)
(2.12888 0.053582 0)
(2.13737 0.0533664 0)
(2.14136 0.0552002 0)
(2.14715 0.0593467 0)
(2.15962 0.061604 0)
(2.17475 0.0620637 0)
(2.19066 0.0621298 0)